ITEM: TIMESTEP
1000
ITEM: NUMBER OF ATOMS
200
ITEM: BOX BOUNDS pp pp pp
0.0000000000000000e+00 1.5567083999999999e+01
0.0000000000000000e+00 1.5567083999999999e+01
0.0000000000000000e+00 1.5567083999999999e+01
ITEM: ATOMS id mol type element q x y z ix iy iz
1 1 1 N 0.15 8.83517 14.2259 15.3217 0 0 0
2 1 2 C -0.11 7.90874 14.7903 14.5015 0 0 0
3 1 1 N 0.15 7.05725 13.8642 14.0642 0 0 0
4 1 3 C -0.13 7.39996 12.6549 14.6789 0 0 0
5 1 3 C -0.13 8.55115 12.8818 15.3418 0 0 0
6 1 4 C -0.17 9.88978 14.9119 0.437748 0 0 1
7 1 5 H 0.21 8.04331 0.24369 14.1744 0 1 0
8 1 4 C -0.17 5.97096 13.9591 13.1002 0 0 0
9 1 6 H 0.21 6.84887 11.7291 14.605 0 0 0
10 1 6 H 0.21 9.13023 12.2049 0.385333 0 0 1
11 1 7 H 0.13 10.7837 14.2897 0.480514 0 0 1
12 1 7 H 0.13 9.94078 0.324064 -0.0383479 0 1 1
13 1 7 H 0.13 9.50941 15.03 1.45238 0 0 1
14 1 8 C -0.05 5.86053 12.9033 11.972 0 0 0
15 1 7 H 0.13 5.05292 13.8645 13.6802 0 0 0
16 1 7 H 0.13 5.91431 14.9106 12.5714 0 0 0
17 1 9 H 0.06 4.87437 13.0564 11.5337 0 0 0
18 1 9 H 0.06 6.72179 13.0808 11.3279 0 0 0
19 1 9 H 0.06 6.01026 11.9057 12.3848 0 0 0
20 2 1 N 0.15 6.04687 1.05624 9.12811 0 0 0
21 2 2 C -0.11 5.1925 2.06173 8.99033 0 0 0
22 2 1 N 0.15 4.94219 2.60585 10.1944 0 0 0
23 2 3 C -0.13 5.44455 1.76427 11.1215 0 0 0
24 2 3 C -0.13 6.2556 0.881914 10.509 0 0 0
25 2 4 C -0.17 6.54833 0.139964 8.08543 0 0 0
26 2 5 H 0.21 4.90073 2.45157 8.02633 0 0 0
27 2 4 C -0.17 4.09625 3.77758 10.4046 0 0 0
28 2 6 H 0.21 5.24235 1.96825 12.1626 0 0 0
29 2 6 H 0.21 6.90146 0.100056 10.8804 0 0 0
30 2 7 H 0.13 5.89785 14.833 8.05481 0 -1 0
31 2 7 H 0.13 6.60702 0.695946 7.14973 0 0 0
32 2 7 H 0.13 7.58298 15.4237 8.27855 0 -1 0
33 2 8 C -0.05 2.60023 3.45253 10.6053 0 0 0
34 2 7 H 0.13 4.50714 4.34684 11.2383 0 0 0
35 2 7 H 0.13 4.27337 4.44418 9.56053 0 0 0
36 2 9 H 0.06 1.90176 4.28906 10.5841 0 0 0
37 2 9 H 0.06 2.23623 2.77471 9.8332 0 0 0
38 2 9 H 0.06 2.48225 2.94076 11.5604 0 0 0
39 3 1 N 0.15 6.12083 8.37678 8.52656 0 0 0
40 3 2 C -0.11 7.00814 8.9734 7.78314 0 0 0
41 3 1 N 0.15 8.23195 8.52764 8.18709 0 0 0
42 3 3 C -0.13 8.00175 7.41899 8.93037 0 0 0
43 3 3 C -0.13 6.68194 7.31953 9.1493 0 0 0
44 3 4 C -0.17 4.70442 8.49984 8.39714 0 0 0
45 3 5 H 0.21 6.92402 9.75567 7.0433 0 0 0
46 3 4 C -0.17 9.52123 8.84008 7.55294 0 0 0
47 3 6 H 0.21 8.78062 6.756 9.27708 0 0 0
48 3 6 H 0.21 6.06085 6.55688 9.59541 0 0 0
49 3 7 H 0.13 4.22864 8.90905 9.28837 0 0 0
50 3 7 H 0.13 4.41193 8.99757 7.47257 0 0 0
51 3 7 H 0.13 4.17894 7.5499 8.29925 0 0 0
52 3 8 C -0.05 9.68498 8.09297 6.23648 0 0 0
53 3 7 H 0.13 9.54558 9.91305 7.36254 0 0 0
54 3 7 H 0.13 10.3152 8.57726 8.2519 0 0 0
55 3 9 H 0.06 9.45848 7.03208 6.34283 0 0 0
56 3 9 H 0.06 8.93763 8.37977 5.49668 0 0 0
57 3 9 H 0.06 10.6039 8.41897 5.7493 0 0 0
58 4 1 N 0.15 11.6206 2.86215 3.46292 0 0 0
59 4 2 C -0.11 10.7052 2.59788 4.43756 0 0 0
60 4 1 N 0.15 10.0699 3.66202 4.93187 0 0 0
61 4 3 C -0.13 10.5549 4.67031 4.14026 0 0 0
62 4 3 C -0.13 11.5469 4.22875 3.31719 0 0 0
63 4 4 C -0.17 12.5223 1.94295 2.79156 0 0 0
64 4 5 H 0.21 10.5541 1.60405 4.83237 0 0 0
65 4 4 C -0.17 9.12204 3.73372 6.03681 0 0 0
66 4 6 H 0.21 10.1438 5.65818 4.28713 0 0 0
67 4 6 H 0.21 12.2292 4.79038 2.69631 0 0 0
68 4 7 H 0.13 13.4844 2.42809 2.62684 0 0 0
69 4 7 H 0.13 12.7 0.946566 3.19617 0 0 0
70 4 7 H 0.13 12.0466 1.84649 1.81559 0 0 0
71 4 8 C -0.05 7.69445 3.81767 5.52194 0 0 0
72 4 7 H 0.13 9.22589 2.92178 6.75659 0 0 0
73 4 7 H 0.13 9.2686 4.67381 6.56864 0 0 0
74 4 9 H 0.06 6.93211 4.05242 6.26479 0 0 0
75 4 9 H 0.06 7.61039 4.72333 4.92126 0 0 0
76 4 9 H 0.06 7.46224 2.90948 4.96573 0 0 0
77 5 1 N 0.15 14.7309 0.285694 11.0012 -1 1 0
78 5 2 C -0.11 -0.0077508 14.8468 10.7078 0 0 0
79 5 1 N 0.15 15.5063 14.5807 9.43863 -1 0 0
80 5 3 C -0.13 14.3572 15.1089 8.98201 -1 0 0
81 5 3 C -0.13 13.9164 0.443828 9.88914 -1 1 0
82 5 4 C -0.17 14.4682 0.890967 12.3487 -1 1 0
83 5 5 H 0.21 0.530014 14.2606 11.4383 0 0 0
84 5 4 C -0.17 0.752955 13.6302 8.65295 0 0 0
85 5 6 H 0.21 13.9325 14.8173 8.03284 -1 0 0
86 5 6 H 0.21 12.9736 0.970375 9.91023 -1 1 0
87 5 7 H 0.13 14.0287 15.8288 13.1226 -1 0 0
88 5 7 H 0.13 15.4383 1.2122 12.728 -1 1 0
89 5 7 H 0.13 13.9334 1.83843 12.2828 -1 1 0
90 5 8 C -0.05 2.24748 13.9871 8.61766 0 0 0
91 5 7 H 0.13 0.636464 12.5922 8.9644 0 0 0
92 5 7 H 0.13 0.446362 13.5817 7.60808 0 0 0
93 5 9 H 0.06 2.79726 13.2183 8.07472 0 0 0
94 5 9 H 0.06 2.52445 14.9398 8.16642 0 0 0
95 5 9 H 0.06 2.57894 14.0374 9.65482 0 0 0
96 6 1 N 0.15 8.99544 5.69276 15.1785 0 0 0
97 6 2 C -0.11 9.4397 5.99223 13.9628 0 0 0
98 6 1 N 0.15 10.6197 5.41682 13.7663 0 0 0
99 6 3 C -0.13 10.9492 4.71954 14.9731 0 0 0
100 6 3 C -0.13 9.92391 4.94051 0.282246 0 0 1
101 6 4 C -0.17 7.87208 6.36572 0.203429 0 0 1
102 6 5 H 0.21 8.88817 6.579 13.2431 0 0 0
103 6 4 C -0.17 11.451 5.40757 12.504 0 0 0
104 6 6 H 0.21 11.8063 4.06331 15.0057 0 0 0
105 6 6 H 0.21 9.68642 4.45913 1.21941 0 0 1
106 6 7 H 0.13 8.09378 7.32788 0.665163 0 0 1
107 6 7 H 0.13 7.06128 6.51066 15.0566 0 0 0
108 6 7 H 0.13 7.55985 5.6408 0.95516 0 0 1
109 6 8 C -0.05 11.1848 6.51779 11.5046 0 0 0
110 6 7 H 0.13 12.4844 5.46594 12.8458 0 0 0
111 6 7 H 0.13 11.3704 4.45193 11.986 0 0 0
112 6 9 H 0.06 11.8165 6.5684 10.6177 0 0 0
113 6 9 H 0.06 10.1544 6.37038 11.1813 0 0 0
114 6 9 H 0.06 11.1419 7.47244 12.0289 0 0 0
115 7 1 N 0.15 5.13629 10.7876 2.45649 0 0 0
116 7 2 C -0.11 4.31895 9.777 2.28036 0 0 0
117 7 1 N 0.15 4.82952 8.65971 2.79149 0 0 0
118 7 3 C -0.13 6.02963 9.02269 3.38421 0 0 0
119 7 3 C -0.13 6.24122 10.2872 3.10061 0 0 0
120 7 4 C -0.17 4.9905 12.2171 2.08019 0 0 0
121 7 5 H 0.21 3.42473 9.89089 1.68556 0 0 0
122 7 4 C -0.17 4.33693 7.25916 2.67205 0 0 0
123 7 6 H 0.21 6.62717 8.26476 3.86887 0 0 0
124 7 6 H 0.21 7.08003 10.9358 3.30582 0 0 0
125 7 7 H 0.13 5.95954 12.6595 1.84905 0 0 0
126 7 7 H 0.13 4.33432 12.38 1.2252 0 0 0
127 7 7 H 0.13 4.52709 12.7693 2.89782 0 0 0
128 7 8 C -0.05 2.86053 7.03206 2.9364 0 0 0
129 7 7 H 0.13 4.60654 6.97926 1.65368 0 0 0
130 7 7 H 0.13 4.88975 6.62394 3.36414 0 0 0
131 7 9 H 0.06 2.63496 5.96568 2.92951 0 0 0
132 7 9 H 0.06 2.44586 7.46547 3.84651 0 0 0
133 7 9 H 0.06 2.33708 7.44912 2.07608 0 0 0
134 8 1 N 0.15 12.8034 11.019 8.70568 0 0 0
135 8 2 C -0.11 13.6294 10.538 9.6429 0 0 0
136 8 1 N 0.15 14.4036 9.67172 9.00241 0 0 0
137 8 3 C -0.13 14.0671 9.5377 7.6745 0 0 0
138 8 3 C -0.13 12.9932 10.369 7.52339 0 0 0
139 8 4 C -0.17 11.7149 11.9607 9.08102 0 0 0
140 8 5 H 0.21 13.6187 10.7278 10.706 0 0 0
141 8 4 C -0.17 0.00247307 8.95969 9.59789 1 0 0
142 8 6 H 0.21 14.4513 8.7789 7.00894 0 0 0
143 8 6 H 0.21 12.3103 10.4413 6.68979 0 0 0
144 8 7 H 0.13 10.6958 11.5741 9.08768 0 0 0
145 8 7 H 0.13 11.8948 12.3379 10.0877 0 0 0
146 8 7 H 0.13 11.5743 12.7486 8.3411 0 0 0
147 8 8 C -0.05 15.2866 7.51288 10.1764 0 0 0
148 8 7 H 0.13 0.727127 8.85358 8.7906 1 0 0
149 8 7 H 0.13 0.568094 9.5784 10.2946 1 0 0
150 8 9 H 0.06 0.592742 6.98616 10.5612 1 0 0
151 8 9 H 0.06 14.6663 7.6705 11.0587 0 0 0
152 8 9 H 0.06 14.7937 6.88647 9.43286 0 0 0
153 9 1 N 0.15 0.324155 2.10077 5.40496 0 0 0
154 9 2 C -0.11 1.06803 1.91843 4.31081 0 0 0
155 9 1 N 0.15 0.937363 0.680062 3.85383 0 0 0
156 9 3 C -0.13 0.099934 0.0558456 4.72766 0 0 0
157 9 3 C -0.13 15.2141 0.908727 5.60634 -1 0 0
158 9 4 C -0.17 0.207063 3.40266 6.01069 0 0 0
159 9 5 H 0.21 1.66631 2.64821 3.78558 0 0 0
160 9 4 C -0.17 1.69788 15.6422 2.66495 0 -1 0
161 9 6 H 0.21 15.4468 14.6081 4.43097 -1 -1 0
162 9 6 H 0.21 14.5096 0.845844 6.42254 -1 0 0
163 9 7 H 0.13 14.8512 3.91229 5.73387 -1 0 0
164 9 7 H 0.13 15.7048 3.25295 7.08813 -1 0 0
165 9 7 H 0.13 1.03613 4.08079 5.80851 0 0 0
166 9 8 C -0.05 2.15021 1.02783 1.52341 0 0 0
167 9 7 H 0.13 2.44174 14.9294 3.02087 0 -1 0
168 9 7 H 0.13 1.03861 15.0004 2.0806 0 -1 0
169 9 9 H 0.06 2.65068 0.37181 0.811182 0 0 0
170 9 9 H 0.06 1.37645 1.42982 0.869352 0 0 0
171 9 9 H 0.06 2.82588 1.86045 1.71918 0 0 0
172 10 1 N 0.15 13.0753 8.29906 1.39193 0 0 0
173 10 2 C -0.11 13.4321 9.47099 1.79003 0 0 0
174 10 1 N 0.15 14.5052 9.8178 1.12965 0 0 0
175 10 3 C -0.13 14.9358 8.73799 0.448926 0 0 0
176 10 3 C -0.13 14.0464 7.7483 0.606567 0 0 0
177 10 4 C -0.17 11.7895 7.64514 1.77792 0 0 0
178 10 5 H 0.21 12.938 10.248 2.3543 0 0 0
179 10 4 C -0.17 15.196 11.1488 1.1586 0 0 0
180 10 6 H 0.21 0.306054 8.72844 15.4797 1 0 -1
181 10 6 H 0.21 14.126 6.75609 0.18753 0 0 0
182 10 7 H 0.13 11.032 8.11382 1.14966 0 0 0
183 10 7 H 0.13 11.7341 6.5863 1.52517 0 0 0
184 10 7 H 0.13 11.4434 7.75699 2.80545 0 0 0
185 10 8 C -0.05 15.1269 11.99 -0.142611 0 0 0
186 10 7 H 0.13 14.8449 11.7739 1.97965 0 0 0
187 10 7 H 0.13 0.68326 10.9484 1.34913 1 0 0
188 10 9 H 0.06 15.3497 13.0356 0.0699486 0 0 0
189 10 9 H 0.06 15.752 11.6957 14.5815 0 0 -1
190 10 9 H 0.06 14.0774 11.9911 15.1301 0 0 -1
191 11 10 F -0.12 9.40101 0.0484827 3.68776 0 1 1
192 12 10 F -0.12 6.63426 9.67709 12.5004 0 0 0
193 13 10 F -0.12 2.91276 10.7658 14.5064 0 0 -1
194 14 10 F -0.12 15.207 4.57064 0.590031 0 0 0
195 15 10 F -0.12 10.375 11.5896 3.68154 0 -1 0
196 16 10 F -0.12 8.61631 9.39638 0.935357 0 0 0
197 17 10 F -0.12 10.1124 13.3014 6.11144 0 -1 0
198 18 10 F -0.12 4.33757 5.02201 7.28849 0 0 0
199 19 10 F -0.12 10.4089 9.32092 10.3123 0 0 0
200 20 10 F -0.12 12.967 13.5191 3.49288 0 0 0
ITEM: TIMESTEP
2000
ITEM: NUMBER OF ATOMS
200
ITEM: BOX BOUNDS pp pp pp
0.0000000000000000e+00 1.5567083999999999e+01
0.0000000000000000e+00 1.5567083999999999e+01
0.0000000000000000e+00 1.5567083999999999e+01
ITEM: ATOMS id mol type element q x y z ix iy iz
1 1 1 N 0.15 7.78023 10.9548 1.5732 0 0 1
2 1 2 C -0.11 6.9725 11.747 0.930103 0 0 1
3 1 1 N 0.15 7.50404 11.9989 15.3018 0 0 0
4 1 3 C -0.13 8.61775 11.2117 15.0373 0 0 0
5 1 3 C -0.13 8.80894 10.6185 0.661396 0 0 1
6 1 4 C -0.17 7.47099 10.4388 2.9905 0 0 1
7 1 5 H 0.21 6.07457 12.1133 1.40539 0 0 1
8 1 4 C -0.17 6.89263 12.8738 14.3121 0 0 0
9 1 6 H 0.21 9.18428 11.1679 14.1189 0 0 0
10 1 6 H 0.21 9.63358 10.0176 1.0153 0 0 1
11 1 7 H 0.13 8.07717 10.8588 3.79318 0 0 1
12 1 7 H 0.13 6.40594 10.4528 3.22195 0 0 1
13 1 7 H 0.13 7.81808 9.40555 2.98396 0 0 1
14 1 8 C -0.05 7.76607 14.0644 14.0812 0 0 0
15 1 7 H 0.13 6.67042 12.3571 13.3784 0 0 0
16 1 7 H 0.13 5.96728 13.3731 14.5994 0 0 0
17 1 9 H 0.06 7.71379 14.5974 13.1319 0 0 0
18 1 9 H 0.06 7.59986 14.8565 14.8113 0 0 0
19 1 9 H 0.06 8.82831 13.8335 14.1616 0 0 0
20 2 1 N 0.15 5.44823 1.66076 6.27153 0 0 0
21 2 2 C -0.11 5.5891 2.56763 7.22142 0 0 0
22 2 1 N 0.15 6.52318 2.17029 8.07165 0 0 0
23 2 3 C -0.13 6.83673 0.872741 7.72494 0 0 0
24 2 3 C -0.13 6.18933 0.599917 6.61245 0 0 0
25 2 4 C -0.17 4.50132 1.72217 5.13253 0 0 0
26 2 5 H 0.21 4.97672 3.4572 7.22962 0 0 0
27 2 4 C -0.17 7.02813 2.92107 9.231 0 0 0
28 2 6 H 0.21 7.4806 0.254209 8.3326 0 0 0
29 2 6 H 0.21 6.25521 15.2448 6.05431 0 -1 0
30 2 7 H 0.13 5.03375 1.87857 4.19436 0 0 0
31 2 7 H 0.13 3.87373 0.833332 5.06774 0 0 0
32 2 7 H 0.13 3.78941 2.52712 5.31515 0 0 0
33 2 8 C -0.05 7.46693 2.09128 10.3782 0 0 0
34 2 7 H 0.13 7.8506 3.5716 8.9336 0 0 0
35 2 7 H 0.13 6.26448 3.5907 9.62664 0 0 0
36 2 9 H 0.06 7.59385 2.61968 11.3231 0 0 0
37 2 9 H 0.06 6.72303 1.36589 10.7076 0 0 0
38 2 9 H 0.06 8.32749 1.48801 10.0891 0 0 0
39 3 1 N 0.15 3.67728 11.1802 9.25667 0 0 0
40 3 2 C -0.11 4.88419 11.2068 8.74793 0 0 0
41 3 1 N 0.15 5.66428 10.2985 9.21587 0 0 0
42 3 3 C -0.13 4.91361 9.48409 10.0715 0 0 0
43 3 3 C -0.13 3.68539 10.0233 10.0206 0 0 0
44 3 4 C -0.17 2.51251 12.1399 8.99766 0 0 0
45 3 5 H 0.21 5.21511 11.9604 8.04866 0 0 0
46 3 4 C -0.17 7.13233 10.2822 9.05819 0 0 0
47 3 6 H 0.21 5.26748 8.60798 10.5946 0 0 0
48 3 6 H 0.21 2.81799 9.60809 10.5121 0 0 0
49 3 7 H 0.13 1.77313 12.0343 9.79154 0 0 0
50 3 7 H 0.13 2.85403 13.1704 8.89917 0 0 0
51 3 7 H 0.13 1.94213 11.9558 8.08724 0 0 0
52 3 8 C -0.05 7.97989 9.93135 10.356 0 0 0
53 3 7 H 0.13 7.41301 9.62226 8.23737 0 0 0
54 3 7 H 0.13 7.36146 11.2962 8.73048 0 0 0
55 3 9 H 0.06 7.75552 8.8987 10.6231 0 0 0
56 3 9 H 0.06 9.02316 10.0479 10.0625 0 0 0
57 3 9 H 0.06 7.82236 10.5335 11.2508 0 0 0
58 4 1 N 0.15 11.0144 2.92312 4.17678 0 0 0
59 4 2 C -0.11 10.7875 3.33629 5.38961 0 0 0
60 4 1 N 0.15 11.3565 4.50353 5.61929 0 0 0
61 4 3 C -0.13 11.969 4.86443 4.46652 0 0 0
62 4 3 C -0.13 11.7281 3.93538 3.54848 0 0 0
63 4 4 C -0.17 10.5465 1.62672 3.53413 0 0 0
64 4 5 H 0.21 10.3601 2.69256 6.14419 0 0 0
65 4 4 C -0.17 11.5792 5.20986 6.94929 0 0 0
66 4 6 H 0.21 12.6094 5.73389 4.44771 0 0 0
67 4 6 H 0.21 12.0518 3.87343 2.52001 0 0 0
68 4 7 H 0.13 10.5105 0.770653 4.20789 0 0 0
69 4 7 H 0.13 9.52853 1.72374 3.15682 0 0 0
70 4 7 H 0.13 11.1921 1.42546 2.67925 0 0 0
71 4 8 C -0.05 13.0612 5.77752 7.12152 0 0 0
72 4 7 H 0.13 10.8633 6.02608 7.04579 0 0 0
73 4 7 H 0.13 11.2836 4.58356 7.79096 0 0 0
74 4 9 H 0.06 13.222 6.08544 8.15469 0 0 0
75 4 9 H 0.06 13.8778 5.14249 6.77805 0 0 0
76 4 9 H 0.06 13.3112 6.68186 6.56676 0 0 0
77 5 1 N 0.15 14.1538 2.0548 10.4743 -1 1 0
78 5 2 C -0.11 14.1481 0.788774 10.006 -1 1 0
79 5 1 N 0.15 13.0046 0.222503 10.3868 -1 1 0
80 5 3 C -0.13 12.122 1.24974 10.8442 -1 1 0
81 5 3 C -0.13 12.8923 2.32681 11.0358 -1 1 0
82 5 4 C -0.17 15.2699 2.99687 10.4308 -1 1 0
83 5 5 H 0.21 14.9581 0.315927 9.47048 -1 1 0
84 5 4 C -0.17 12.8913 14.3122 10.5101 -1 0 0
85 5 6 H 0.21 11.0902 1.04345 11.0875 -1 1 0
86 5 6 H 0.21 12.6495 3.29106 11.4573 -1 1 0
87 5 7 H 0.13 0.492575 2.46171 9.90353 0 1 0
88 5 7 H 0.13 15.0723 3.90162 9.85594 -1 1 0
89 5 7 H 0.13 0.0622406 3.23409 11.4321 0 1 0
90 5 8 C -0.05 14.1736 13.5207 10.1351 -1 0 0
91 5 7 H 0.13 12.6871 14.0915 11.5578 -1 0 0
92 5 7 H 0.13 12.0688 13.917 9.91395 -1 0 0
93 5 9 H 0.06 14.1092 12.4461 10.3062 -1 0 0
94 5 9 H 0.06 14.39 13.6436 9.07385 -1 0 0
95 5 9 H 0.06 15.0408 13.8417 10.7121 -1 0 0
96 6 1 N 0.15 8.37257 5.4965 13.7754 0 0 0
97 6 2 C -0.11 9.68874 5.50808 13.8396 0 0 0
98 6 1 N 0.15 10.1264 4.61352 14.6763 0 0 0
99 6 3 C -0.13 9.02783 3.91733 15.0977 0 0 0
100 6 3 C -0.13 7.92402 4.32289 14.4309 0 0 0
101 6 4 C -0.17 7.46435 6.47004 13.0268 0 0 0
102 6 5 H 0.21 10.3354 6.18825 13.3051 0 0 0
103 6 4 C -0.17 11.5448 4.35461 15.0266 0 0 0
104 6 6 H 0.21 9.2196 3.04054 0.131353 0 0 1
105 6 6 H 0.21 6.89914 3.98243 14.4206 0 0 0
106 6 7 H 0.13 6.46954 6.05501 13.1887 0 0 0
107 6 7 H 0.13 7.35901 7.47819 13.4276 0 0 0
108 6 7 H 0.13 7.7891 6.52712 11.9879 0 0 0
109 6 8 C -0.05 12.2759 5.56603 0.140022 0 0 1
110 6 7 H 0.13 11.6848 3.45902 0.0647991 0 0 1
111 6 7 H 0.13 12.0473 4.10312 14.0926 0 0 0
112 6 9 H 0.06 13.3362 5.37063 0.300282 0 0 1
113 6 9 H 0.06 12.2776 6.43972 15.0554 0 0 0
114 6 9 H 0.06 11.8663 5.81499 1.11895 0 0 1
115 7 1 N 0.15 6.25292 7.23817 2.694 0 0 0
116 7 2 C -0.11 5.08261 7.47524 3.23845 0 0 0
117 7 1 N 0.15 5.2406 7.29178 4.53729 0 0 0
118 7 3 C -0.13 6.56405 7.0426 4.83539 0 0 0
119 7 3 C -0.13 7.22998 7.0647 3.67015 0 0 0
120 7 4 C -0.17 6.51911 7.30346 1.28317 0 0 0
121 7 5 H 0.21 4.19004 7.73002 2.68636 0 0 0
122 7 4 C -0.17 4.14435 7.37848 5.51069 0 0 0
123 7 6 H 0.21 6.91281 6.81901 5.83277 0 0 0
124 7 6 H 0.21 8.28794 6.92591 3.50328 0 0 0
125 7 7 H 0.13 6.46734 6.37474 0.714919 0 0 0
126 7 7 H 0.13 5.78105 7.98872 0.866309 0 0 0
127 7 7 H 0.13 7.47206 7.79388 1.08449 0 0 0
128 7 8 C -0.05 4.29142 8.41101 6.66621 0 0 0
129 7 7 H 0.13 3.17786 7.48091 5.01722 0 0 0
130 7 7 H 0.13 4.05091 6.34938 5.85757 0 0 0
131 7 9 H 0.06 3.35887 8.36212 7.22842 0 0 0
132 7 9 H 0.06 5.12964 8.15405 7.31386 0 0 0
133 7 9 H 0.06 4.43305 9.40347 6.23836 0 0 0
134 8 1 N 0.15 12.244 10.6716 6.95201 0 0 0
135 8 2 C -0.11 12.1357 10.0691 8.12794 0 0 0
136 8 1 N 0.15 13.3264 9.5714 8.53925 0 0 0
137 8 3 C -0.13 14.1459 9.71656 7.42939 0 0 0
138 8 3 C -0.13 13.5446 10.5301 6.55437 0 0 0
139 8 4 C -0.17 11.2168 11.4563 6.28561 0 0 0
140 8 5 H 0.21 11.2411 10.0137 8.73046 0 0 0
141 8 4 C -0.17 13.5221 9.00143 9.84129 0 0 0
142 8 6 H 0.21 15.1747 9.39018 7.46705 0 0 0
143 8 6 H 0.21 13.8702 10.9784 5.62731 0 0 0
144 8 7 H 0.13 11.4253 12.496 6.53759 0 0 0
145 8 7 H 0.13 11.2952 11.4382 5.19859 0 0 0
146 8 7 H 0.13 10.2079 11.1768 6.58942 0 0 0
147 8 8 C -0.05 15.0163 9.07204 10.363 0 0 0
148 8 7 H 0.13 12.8567 9.43017 10.5906 0 0 0
149 8 7 H 0.13 13.1824 7.96613 9.87026 0 0 0
150 8 9 H 0.06 14.8527 9.06349 11.4406 0 0 0
151 8 9 H 0.06 0.0700832 8.22621 10.0677 1 0 0
152 8 9 H 0.06 15.6299 9.91699 10.0505 0 0 0
153 9 1 N 0.15 1.07859 0.206816 2.79185 0 0 0
154 9 2 C -0.11 0.779702 1.01965 1.7864 0 0 0
155 9 1 N 0.15 1.90052 1.32113 1.21609 0 0 0
156 9 3 C -0.13 2.90016 0.480859 1.60779 0 0 0
157 9 3 C -0.13 2.32137 15.2479 2.50714 0 -1 0
158 9 4 C -0.17 0.0542538 15.3626 3.7419 0 -1 0
159 9 5 H 0.21 -0.106105 1.60613 1.59203 0 0 0
160 9 4 C -0.17 2.15409 2.52431 0.376745 0 0 0
161 9 6 H 0.21 3.92183 0.438564 1.26023 0 0 0
162 9 6 H 0.21 2.79907 14.4593 3.06955 0 -1 0
163 9 7 H 0.13 14.9598 0.6455 3.90916 -1 0 0
164 9 7 H 0.13 15.0171 14.5387 3.36208 -1 -1 0
165 9 7 H 0.13 0.549989 15.1199 4.6818 0 -1 0
166 9 8 C -0.05 2.77413 3.76806 1.14031 0 0 0
167 9 7 H 0.13 2.86037 2.29037 15.1472 0 0 -1
168 9 7 H 0.13 1.32974 2.7607 15.271 0 0 -1
169 9 9 H 0.06 2.68533 4.61858 0.464423 0 0 0
170 9 9 H 0.06 2.33927 3.99062 2.11472 0 0 0
171 9 9 H 0.06 3.83437 3.57856 1.30786 0 0 0
172 10 1 N 0.15 14.0919 11.5718 1.3028 0 0 0
173 10 2 C -0.11 14.3839 12.3344 0.244039 0 0 0
174 10 1 N 0.15 15.3258 11.7388 15.0631 0 0 -1
175 10 3 C -0.13 15.5586 10.451 15.584 0 0 -1
176 10 3 C -0.13 14.7565 10.3444 1.13061 0 0 0
177 10 4 C -0.17 13.0261 11.7697 2.23169 0 0 0
178 10 5 H 0.21 14.0702 13.3323 -0.0248329 0 0 0
179 10 4 C -0.17 0.566657 12.474 14.1148 1 0 -1
180 10 6 H 0.21 0.687258 9.81112 15.0616 1 0 -1
181 10 6 H 0.21 14.6448 9.55245 1.8564 0 0 0
182 10 7 H 0.13 13.2241 11.5286 3.27608 0 0 0
183 10 7 H 0.13 12.7489 12.8238 2.24239 0 0 0
184 10 7 H 0.13 12.1766 11.144 1.95793 0 0 0
185 10 8 C -0.05 1.98472 12.7826 14.6364 1 0 -1
186 10 7 H 0.13 0.588572 11.8556 13.2175 1 0 -1
187 10 7 H 0.13 15.6456 13.4203 13.882 0 0 -1
188 10 9 H 0.06 2.57365 13.3062 13.8833 1 0 -1
189 10 9 H 0.06 2.06363 13.3069 0.0216304 1 0 0
190 10 9 H 0.06 2.53425 11.856 14.8025 1 0 -1
191 11 10 F -0.12 9.77 14.9243 6.36609 0 0 1
192 12 10 F -0.12 6.45027 9.62736 13.5494 0 0 0
193 13 10 F -0.12 3.9298 6.37847 0.377639 0 0 0
194 14 10 F -0.12 9.99505 5.18182 10.5998 0 0 -1
195 15 10 F -0.12 10.564 8.72852 4.85237 0 -1 0
196 16 10 F -0.12 11.7508 9.01726 15.1243 0 0 -1
197 17 10 F -0.12 6.55102 12.5073 6.37733 0 -1 0
198 18 10 F -0.12 6.54598 6.51648 8.28039 0 0 0
199 19 10 F -0.12 10.1556 7.59053 10.8669 0 0 0
200 20 10 F -0.12 1.06432 12.1947 4.54984 1 0 0
ITEM: TIMESTEP
3000
ITEM: NUMBER OF ATOMS
200
ITEM: BOX BOUNDS pp pp pp
0.0000000000000000e+00 1.5567083999999999e+01
0.0000000000000000e+00 1.5567083999999999e+01
0.0000000000000000e+00 1.5567083999999999e+01
ITEM: ATOMS id mol type element q x y z ix iy iz
1 1 1 N 0.15 9.89651 10.066 3.85695 0 0 1
2 1 2 C -0.11 8.9438 10.8571 3.46829 0 0 1
3 1 1 N 0.15 9.17755 11.4053 2.29069 0 0 1
4 1 3 C -0.13 10.3479 10.7668 1.78589 0 0 1
5 1 3 C -0.13 10.6792 9.8107 2.70359 0 0 1
6 1 4 C -0.17 9.91937 9.40788 5.15692 0 0 1
7 1 5 H 0.21 8.07969 11.1614 4.04022 0 0 1
8 1 4 C -0.17 8.12737 12.0919 1.42799 0 0 1
9 1 6 H 0.21 10.7771 11.0172 0.827015 0 0 1
10 1 6 H 0.21 11.5086 9.12047 2.65919 0 0 1
11 1 7 H 0.13 8.95148 9.43181 5.65764 0 0 1
12 1 7 H 0.13 10.0992 8.33283 5.15162 0 0 1
13 1 7 H 0.13 10.6761 9.80034 5.83624 0 0 1
14 1 8 C -0.05 7.04167 12.7072 2.27134 0 0 1
15 1 7 H 0.13 8.6314 12.874 0.860174 0 0 1
16 1 7 H 0.13 7.7361 11.3067 0.781062 0 0 1
17 1 9 H 0.06 7.38613 13.2263 3.16575 0 0 1
18 1 9 H 0.06 6.41338 13.4328 1.75468 0 0 1
19 1 9 H 0.06 6.4298 11.8735 2.6158 0 0 1
20 2 1 N 0.15 4.53591 0.493135 5.31941 0 0 0
21 2 2 C -0.11 5.41804 1.29705 5.85319 0 0 0
22 2 1 N 0.15 6.51504 0.608602 6.16642 0 0 0
23 2 3 C -0.13 6.27765 14.8604 5.91383 0 -1 0
24 2 3 C -0.13 5.03852 14.7683 5.39171 0 -1 0
25 2 4 C -0.17 3.18807 0.925964 4.94069 0 0 0
26 2 5 H 0.21 5.21961 2.33624 6.07021 0 0 0
27 2 4 C -0.17 7.70883 1.17961 6.8342 0 0 0
28 2 6 H 0.21 7.07012 14.1401 6.05374 0 -1 0
29 2 6 H 0.21 4.43284 13.9769 4.97549 0 -1 0
30 2 7 H 0.13 3.04178 0.78902 3.86927 0 0 0
31 2 7 H 0.13 2.44499 0.360311 5.5028 0 0 0
32 2 7 H 0.13 2.97356 1.95376 5.23348 0 0 0
33 2 8 C -0.05 7.59836 1.15127 8.32949 0 0 0
34 2 7 H 0.13 8.55906 0.629571 6.43088 0 0 0
35 2 7 H 0.13 7.91539 2.20682 6.53373 0 0 0
36 2 9 H 0.06 8.52693 1.42054 8.83284 0 0 0
37 2 9 H 0.06 6.77186 1.78774 8.64555 0 0 0
38 2 9 H 0.06 7.42743 0.139308 8.69665 0 0 0
39 3 1 N 0.15 1.62889 11.4107 8.51186 0 0 0
40 3 2 C -0.11 2.37703 11.9577 9.46484 0 0 0
41 3 1 N 0.15 3.3372 11.1454 9.80584 0 0 0
42 3 3 C -0.13 3.25891 9.99664 9.06057 0 0 0
43 3 3 C -0.13 2.28686 10.1893 8.14309 0 0 0
44 3 4 C -0.17 0.525064 12.2096 7.96457 0 0 0
45 3 5 H 0.21 2.05185 12.8485 9.98171 0 0 0
46 3 4 C -0.17 4.27605 11.2994 10.9755 0 0 0
47 3 6 H 0.21 3.98431 9.22361 9.26702 0 0 0
48 3 6 H 0.21 2.07888 9.56722 7.2851 0 0 0
49 3 7 H 0.13 0.718183 12.5158 6.93645 0 0 0
50 3 7 H 0.13 15.1731 11.6246 7.99993 -1 0 0
51 3 7 H 0.13 0.358245 13.1726 8.44711 0 0 0
52 3 8 C -0.05 5.5837 12.025 10.6966 0 0 0
53 3 7 H 0.13 3.73009 11.7263 11.8168 0 0 0
54 3 7 H 0.13 4.60088 10.3002 11.2657 0 0 0
55 3 9 H 0.06 5.61339 13.1143 10.6715 0 0 0
56 3 9 H 0.06 6.35252 11.7173 11.4053 0 0 0
57 3 9 H 0.06 5.89301 11.7087 9.70036 0 0 0
58 4 1 N 0.15 13.6593 3.38529 4.95664 0 0 0
59 4 2 C -0.11 13.6966 4.57818 5.55928 0 0 0
60 4 1 N 0.15 13.6776 5.56132 4.68358 0 0 0
61 4 3 C -0.13 13.8607 4.9256 3.46115 0 0 0
62 4 3 C -0.13 13.6606 3.59709 3.5991 0 0 0
63 4 4 C -0.17 13.741 1.97454 5.49668 0 0 0
64 4 5 H 0.21 13.817 4.7055 6.62497 0 0 0
65 4 4 C -0.17 13.9884 6.92289 5.02557 0 0 0
66 4 6 H 0.21 13.9727 5.51389 2.56238 0 0 0
67 4 6 H 0.21 13.6348 2.80956 2.8605 0 0 0
68 4 7 H 0.13 14.2595 1.35234 4.76722 0 0 0
69 4 7 H 0.13 14.2572 2.03507 6.45479 0 0 0
70 4 7 H 0.13 12.7364 1.5925 5.67789 0 0 0
71 4 8 C -0.05 -0.0670456 7.21084 4.93375 1 0 0
72 4 7 H 0.13 13.3638 7.48392 4.33036 0 0 0
73 4 7 H 0.13 13.7143 7.09744 6.066 0 0 0
74 4 9 H 0.06 0.16532 8.20078 5.32634 1 0 0
75 4 9 H 0.06 0.521315 6.57126 5.59168 1 0 0
76 4 9 H 0.06 0.272384 7.22417 3.89804 1 0 0
77 5 1 N 0.15 15.5063 1.82504 9.89809 -1 1 0
78 5 2 C -0.11 14.2384 1.5148 10.0363 -1 1 0
79 5 1 N 0.15 13.595 2.45707 10.7413 -1 1 0
80 5 3 C -0.13 14.4515 3.52236 10.8582 -1 1 0
81 5 3 C -0.13 0.0451426 3.2031 10.2695 0 1 0
82 5 4 C -0.17 1.0305 0.922192 9.49066 0 1 0
83 5 5 H 0.21 13.8327 0.527618 9.87115 -1 1 0
84 5 4 C -0.17 12.1227 2.46056 11.0648 -1 1 0
85 5 6 H 0.21 14.0962 4.36811 11.4281 -1 1 0
86 5 6 H 0.21 0.946182 3.7985 10.2744 0 1 0
87 5 7 H 0.13 0.716175 0.31633 8.64082 0 1 0
88 5 7 H 0.13 1.9524 1.47085 9.29788 0 1 0
89 5 7 H 0.13 1.25315 0.208484 10.2838 0 1 0
90 5 8 C -0.05 11.3685 1.17324 11.3786 -1 1 0
91 5 7 H 0.13 11.9704 3.04974 11.9691 -1 1 0
92 5 7 H 0.13 11.6187 2.89671 10.2023 -1 1 0
93 5 9 H 0.06 10.3088 1.32564 11.5832 -1 1 0
94 5 9 H 0.06 11.5229 0.40714 10.6188 -1 1 0
95 5 9 H 0.06 11.7893 0.767028 12.2984 -1 1 0
96 6 1 N 0.15 7.44969 5.92949 11.5811 0 0 0
97 6 2 C -0.11 7.53481 6.49456 12.7765 0 0 0
98 6 1 N 0.15 8.34057 5.72916 13.5069 0 0 0
99 6 3 C -0.13 8.55985 4.54395 12.8187 0 0 0
100 6 3 C -0.13 8.10547 4.73392 11.6242 0 0 0
101 6 4 C -0.17 6.87312 6.50111 10.3781 0 0 0
102 6 5 H 0.21 7.21245 7.496 13.0206 0 0 0
103 6 4 C -0.17 8.93892 6.0942 14.8319 0 0 0
104 6 6 H 0.21 9.19134 3.74607 13.1806 0 0 0
105 6 6 H 0.21 8.31998 4.08308 10.7895 0 0 0
106 6 7 H 0.13 7.55771 7.28739 10.06 0 0 0
107 6 7 H 0.13 6.78245 5.69843 9.64628 0 0 0
108 6 7 H 0.13 5.8298 6.74361 10.58 0 0 0
109 6 8 C -0.05 10.4922 6.39334 14.8229 0 0 0
110 6 7 H 0.13 8.45015 6.97038 15.2579 0 0 0
111 6 7 H 0.13 8.78018 5.23836 15.4879 0 0 0
112 6 9 H 0.06 10.8994 6.78591 0.187593 0 0 1
113 6 9 H 0.06 11.1062 5.54561 14.5188 0 0 0
114 6 9 H 0.06 10.6753 7.22726 14.1453 0 0 0
115 7 1 N 0.15 6.43893 5.50352 3.17518 0 0 0
116 7 2 C -0.11 6.1136 6.75293 3.42953 0 0 0
117 7 1 N 0.15 6.17886 6.9408 4.76346 0 0 0
118 7 3 C -0.13 6.71636 5.83943 5.31072 0 0 0
119 7 3 C -0.13 6.95401 4.97997 4.32125 0 0 0
120 7 4 C -0.17 6.16409 4.67972 1.93367 0 0 0
121 7 5 H 0.21 5.76488 7.45223 2.68403 0 0 0
122 7 4 C -0.17 5.42554 7.91339 5.59263 0 0 0
123 7 6 H 0.21 6.69358 5.83025 6.39044 0 0 0
124 7 6 H 0.21 7.36582 3.98501 4.40415 0 0 0
125 7 7 H 0.13 5.16772 4.24184 1.99378 0 0 0
126 7 7 H 0.13 6.1981 5.23405 0.995772 0 0 0
127 7 7 H 0.13 6.87867 3.87356 1.76759 0 0 0
128 7 8 C -0.05 4.78167 8.94295 4.69968 0 0 0
129 7 7 H 0.13 4.68252 7.46266 6.25054 0 0 0
130 7 7 H 0.13 6.10265 8.40604 6.29043 0 0 0
131 7 9 H 0.06 4.28569 9.67821 5.33331 0 0 0
132 7 9 H 0.06 5.56633 9.37633 4.07953 0 0 0
133 7 9 H 0.06 3.99717 8.58128 4.03496 0 0 0
134 8 1 N 0.15 11.3749 10.5632 9.51659 0 0 0
135 8 2 C -0.11 12.0842 10.0084 10.4746 0 0 0
136 8 1 N 0.15 13.1673 9.48942 10.017 0 0 0
137 8 3 C -0.13 13.1726 9.73078 8.61323 0 0 0
138 8 3 C -0.13 12.0252 10.3642 8.30733 0 0 0
139 8 4 C -0.17 10.1639 11.3917 9.62063 0 0 0
140 8 5 H 0.21 11.7183 9.97558 11.4902 0 0 0
141 8 4 C -0.17 14.1763 8.70709 10.8028 0 0 0
142 8 6 H 0.21 13.9214 9.36548 7.92612 0 0 0
143 8 6 H 0.21 11.6329 10.7348 7.37183 0 0 0
144 8 7 H 0.13 9.55308 11.15 10.4905 0 0 0
145 8 7 H 0.13 10.5576 12.3952 9.78184 0 0 0
146 8 7 H 0.13 9.41913 11.2623 8.83532 0 0 0
147 8 8 C -0.05 15.5151 9.47054 10.9928 0 0 0
148 8 7 H 0.13 13.7521 8.46949 11.7783 0 0 0
149 8 7 H 0.13 14.426 7.72174 10.4093 0 0 0
150 8 9 H 0.06 0.440246 9.04731 11.8684 1 0 0
151 8 9 H 0.06 0.649278 9.23986 10.1909 1 0 0
152 8 9 H 0.06 15.4773 10.5415 11.192 0 0 0
153 9 1 N 0.15 2.48735 15.3256 15.3493 0 -1 -1
154 9 2 C -0.11 1.42521 0.558759 15.4308 0 0 -1
155 9 1 N 0.15 1.75262 1.78104 15.147 0 0 -1
156 9 3 C -0.13 3.12604 1.81011 15.0273 0 0 -1
157 9 3 C -0.13 3.57728 0.52854 15.0216 0 0 -1
158 9 4 C -0.17 2.43126 13.8611 0.112973 0 -1 0
159 9 5 H 0.21 0.394854 0.259868 -0.0120379 0 0 0
160 9 4 C -0.17 0.830634 2.91391 14.9342 0 0 -1
161 9 6 H 0.21 3.71054 2.71219 14.9223 0 0 -1
162 9 6 H 0.21 4.5241 0.0186668 14.9218 0 0 -1
163 9 7 H 0.13 1.93873 13.7306 1.07655 0 -1 0
164 9 7 H 0.13 1.73407 13.4026 14.9788 0 -1 -1
165 9 7 H 0.13 3.41758 13.3975 0.132188 0 -1 0
166 9 8 C -0.05 1.44792 4.29527 15.1547 0 0 -1
167 9 7 H 0.13 0.35336 2.93611 13.9545 0 0 -1
168 9 7 H 0.13 15.5175 2.85682 15.5746 -1 0 -1
169 9 9 H 0.06 0.822611 5.09798 14.7639 0 0 -1
170 9 9 H 0.06 1.6097 4.59064 0.624326 0 0 0
171 9 9 H 0.06 2.46665 4.36364 14.7732 0 0 -1
172 10 1 N 0.15 13.6688 12.2834 0.541441 0 0 0
173 10 2 C -0.11 14.4124 11.5891 15.2204 0 0 -1
174 10 1 N 0.15 15.1764 10.7362 0.254929 0 0 0
175 10 3 C -0.13 14.8302 10.788 1.55221 0 0 0
176 10 3 C -0.13 14.0014 11.8114 1.76918 0 0 0
177 10 4 C -0.17 12.5946 13.3003 0.264897 0 0 0
178 10 5 H 0.21 14.3309 11.7503 14.1556 0 0 -1
179 10 4 C -0.17 0.69564 9.89666 15.2317 1 0 -1
180 10 6 H 0.21 15.1899 10.0822 2.28634 0 0 0
181 10 6 H 0.21 13.6721 12.2055 2.71925 0 0 0
182 10 7 H 0.13 11.7079 12.7691 15.4861 0 0 -1
183 10 7 H 0.13 12.0961 13.8136 1.08716 0 0 0
184 10 7 H 0.13 12.8319 14.0266 15.0546 0 0 -1
185 10 8 C -0.05 0.717073 8.37897 15.5554 1 0 -1
186 10 7 H 0.13 0.669478 10.1232 14.1658 1 0 -1
187 10 7 H 0.13 1.67866 10.1462 15.6311 1 0 -1
188 10 9 H 0.06 1.6378 7.89618 15.2279 1 0 -1
189 10 9 H 0.06 0.603949 8.16985 1.05206 1 0 0
190 10 9 H 0.06 15.5102 7.8032 15.0478 0 0 -1
191 11 10 F -0.12 10.7285 2.26518 6.78903 0 1 1
192 12 10 F -0.12 4.63375 8.09329 13.7964 0 0 0
193 13 10 F -0.12 6.1701 8.99295 0.768839 0 0 0
194 14 10 F -0.12 11.7358 4.94848 7.99041 0 0 -1
195 15 10 F -0.12 7.4748 9.37847 8.96049 0 -1 0
196 16 10 F -0.12 13.3306 7.77099 0.982887 0 0 0
197 17 10 F -0.12 5.68966 11.394 6.9148 0 -1 0
198 18 10 F -0.12 4.3096 4.16444 7.31255 0 0 0
199 19 10 F -0.12 11.0666 10.2583 14.0246 0 0 0
200 20 10 F -0.12 13.5358 10.2885 5.26166 0 0 0
ITEM: TIMESTEP
4000
ITEM: NUMBER OF ATOMS
200
ITEM: BOX BOUNDS pp pp pp
0.0000000000000000e+00 1.5567083999999999e+01
0.0000000000000000e+00 1.5567083999999999e+01
0.0000000000000000e+00 1.5567083999999999e+01
ITEM: ATOMS id mol type element q x y z ix iy iz
1 1 1 N 0.15 9.1742 9.68266 6.43372 0 0 1
2 1 2 C -0.11 8.42247 10.6858 6.0368 0 0 1
3 1 1 N 0.15 7.96517 10.3529 4.80697 0 0 1
4 1 3 C -0.13 8.56364 9.14987 4.35263 0 0 1
5 1 3 C -0.13 9.17829 8.70332 5.44362 0 0 1
6 1 4 C -0.17 9.87399 9.43611 7.77204 0 0 1
7 1 5 H 0.21 7.97639 11.4314 6.67828 0 0 1
8 1 4 C -0.17 6.88971 11.0443 4.03082 0 0 1
9 1 6 H 0.21 8.34058 8.60278 3.44856 0 0 1
10 1 6 H 0.21 9.63478 7.73709 5.59986 0 0 1
11 1 7 H 0.13 10.6839 8.70715 7.80117 0 0 1
12 1 7 H 0.13 10.1645 10.3129 8.35073 0 0 1
13 1 7 H 0.13 8.99133 9.05819 8.28797 0 0 1
14 1 8 C -0.05 5.69259 10.1426 4.2595 0 0 1
15 1 7 H 0.13 6.63292 12.0655 4.31262 0 0 1
16 1 7 H 0.13 7.04928 10.9796 2.9545 0 0 1
17 1 9 H 0.06 5.66386 10.0989 5.34824 0 0 1
18 1 9 H 0.06 4.83086 10.6027 3.77597 0 0 1
19 1 9 H 0.06 5.73743 9.08835 3.98626 0 0 1
20 2 1 N 0.15 6.01299 15.5239 6.12631 0 -1 0
21 2 2 C -0.11 7.31864 0.173112 6.15025 0 0 0
22 2 1 N 0.15 7.71992 0.287411 7.40752 0 0 0
23 2 3 C -0.13 6.60889 15.6119 8.22964 0 -1 0
24 2 3 C -0.13 5.55714 15.3827 7.44114 0 -1 0
25 2 4 C -0.17 5.23307 15.2599 4.88511 0 -1 0
26 2 5 H 0.21 7.98961 0.106067 5.30662 0 0 0
27 2 4 C -0.17 9.13391 0.544966 7.89774 0 0 0
28 2 6 H 0.21 6.66397 -0.0352603 9.30526 0 0 0
29 2 6 H 0.21 4.52867 15.164 7.68778 0 -1 0
30 2 7 H 0.13 5.54445 14.3151 4.43973 0 -1 0
31 2 7 H 0.13 4.16308 15.1355 5.05168 0 -1 0
32 2 7 H 0.13 5.46161 0.505922 4.19606 0 0 0
33 2 8 C -0.05 9.2129 0.916762 9.36297 0 0 0
34 2 7 H 0.13 9.69485 15.2164 7.63094 0 -1 0
35 2 7 H 0.13 9.54651 1.35031 7.29006 0 0 0
36 2 9 H 0.06 10.2267 1.24689 9.5893 0 0 0
37 2 9 H 0.06 8.58137 1.78417 9.55497 0 0 0
38 2 9 H 0.06 8.8629 0.154762 10.0594 0 0 0
39 3 1 N 0.15 1.47532 10.3984 7.20077 0 0 0
40 3 2 C -0.11 1.50792 10.7695 8.45434 0 0 0
41 3 1 N 0.15 1.71237 9.7172 9.2616 0 0 0
42 3 3 C -0.13 2.07052 8.70319 8.41651 0 0 0