ITEM: TIMESTEP
0
ITEM: NUMBER OF ATOMS
64
ITEM: BOX BOUNDS pp pp pp
0.0000000000000000e+00 1.3100000000000000e+01
0.0000000000000000e+00 1.3100000000000000e+01
0.0000000000000000e+00 1.3100000000000000e+01
ITEM: ATOMS id type element x y z vx vy vz 
1 1 Na 11.8108 10.4776 9.4011 3.86469 -7.01612 9.87949 
2 1 Na 4.92086 8.84272 1.80584 2.74837 6.48998 -3.15316 
3 1 Na 9.27772 2.10688 0.0705985 -6.54677 -10.1524 -6.19828 
4 1 Na 8.8945 6.38434 1.2217 1.87883 -7.56446 8.7542 
5 1 Na 2.82104 3.69972 8.85018 -11.0332 9.68292 2.48049 
6 1 Na 11.9125 5.67717 10.4505 10.3041 -11.0337 3.55206 
7 1 Na 11.4557 4.62228 5.10139 10.5539 12.3217 7.76816 
8 1 Na 4.8127 0.839813 2.82519 -6.73446 -2.44428 -7.08262 
9 1 Na 9.3897 5.07654 3.58354 10.858 9.51393 3.26149 
10 1 Na 7.67152 1.08443 2.53442 -6.13927 -4.42229 0.916355 
11 1 Na 2.60046 1.622 4.1343 7.54781 10.413 -5.36511 
12 1 Na 12.7697 8.91223 7.62246 -2.60154 -9.60092 -2.25928 
13 1 Na 6.9441 6.79194 8.49227 -3.48466 -4.7809 1.68726 
14 1 Na 11.5776 2.15443 5.32594 -5.69791 2.09725 10.1171 
15 1 Na 10.0919 8.57635 1.9715 -6.24774 0.69995 -4.93607 
16 1 Na 8.39756 9.97515 6.12893 -5.41459 -4.14216 -9.6209 
17 1 Na 8.05685 11.7563 9.79049 -9.94456 0.0861476 5.37541 
18 1 Na 8.35232 4.64432 8.90461 -2.65045 8.28284 -10.0492 
19 1 Na 5.75433 11.0813 6.21346 4.81443 -3.83499 -10.1188 
20 1 Na 8.78568 9.18796 12.6226 -3.64141 4.00286 -4.02041 
21 1 Na 3.12494 12.7041 5.65186 -6.83978 6.19873 -6.54322 
22 1 Na 9.3846 1.35216 7.97961 10.0152 0.530012 4.63451 
23 1 Na 9.3132 8.08064 7.93467 -3.82251 -1.01125 -9.00324 
24 1 Na 2.43074 4.09512 3.86109 -4.78856 -6.45476 7.47262 
25 1 Na 0.417503 3.06552 9.46451 -8.18786 2.97772 10.1813 
26 1 Na 6.96286 3.51961 6.78424 10.0747 -11.2084 6.82215 
27 1 Na 10.7271 5.46784 7.90119 3.36804 -3.99314 -0.0573927 
28 1 Na 2.89182 5.13367 6.87073 -3.81775 4.86543 -8.39837 
29 1 Na 4.71324 3.92204 1.64682 7.5703 -6.93209 -10.6887 
30 1 Na 4.34056 11.4161 3.62294 3.69039 3.3817 6.16614 
31 1 Na 3.74216 9.43826 7.27506 -3.92669 2.05175 11.2316 
32 1 Na 6.84356 7.65748 0.382463 -0.956395 -4.06227 -0.894018 
33 2 Cl 12.5336 0.2174 1.52368 -6.51354 -8.15341 -8.61606 
34 2 Cl 5.13443 3.01057 10.5911 3.06609 2.97223 2.93243 
35 2 Cl 0.996812 6.28638 3.47224 -1.15225 -7.35606 2.84543 
36 2 Cl 2.57608 8.38732 0.848848 8.85944 3.57018 5.52153 
37 2 Cl 1.75058 7.90179 5.31832 2.47436 5.4233 -5.32535 
38 2 Cl 4.69479 4.9764 12.5328 0.760027 1.23852 -8.62023 
39 2 Cl 0.0251551 8.34837 2.31953 -7.32288 -2.32345 10.5086 
40 2 Cl 8.71621 7.57922 4.64364 0.730434 1.24821 -4.95785 
41 2 Cl 5.80148 8.24441 10.0613 9.67354 -1.94442 -5.51014 
42 2 Cl 7.04046 3.68808 3.78868 -1.32346 -0.0470144 -8.19199 
43 2 Cl 12.2555 11.3375 6.16546 7.83555 4.56858 -6.11809 
44 2 Cl 3.88713 11.7255 9.63409 7.10113 -3.69246 0.725573 
45 2 Cl 2.86293 0.809592 7.81784 -6.8192 7.60335 7.21924 
46 2 Cl 5.98603 10.7468 10.9361 5.86414 -2.90639 1.65048 
47 2 Cl 3.49767 0.0712179 0.574117 -0.277054 -0.585482 -5.79333 
48 2 Cl 11.0514 12.6325 8.44096 -5.88817 -2.4059 -2.4399 
49 2 Cl 1.11617 10.8109 4.62148 -8.54769 4.15071 -6.14369 
50 2 Cl 6.25538 7.09521 4.33074 -5.42152 1.80704 -3.34777 
51 2 Cl 0.998488 11.0443 10.4313 -7.28856 -2.41094 -7.60061 
52 2 Cl 9.70398 9.67037 10.5212 -0.582913 -8.14725 -4.41672 
53 2 Cl 5.2113 2.08064 8.31697 -7.6144 -7.57824 9.11174 
54 2 Cl 1.1406 0.327339 12.5487 0.310504 6.36837 1.89119 
55 2 Cl 0.12266 1.24623 6.93016 6.64619 9.98407 10.3833 
56 2 Cl 5.82358 1.8507 12.6916 4.57861 -2.53296 10.8144 
57 2 Cl 4.9588 6.55022 6.73246 7.1507 -6.16715 9.84729 
58 2 Cl 10.7647 1.00494 3.34837 7.60161 -7.85804 1.75104 
59 2 Cl 2.00193 12.0634 2.29335 -1.23487 -3.25207 1.18853 
60 2 Cl 2.53018 8.97544 9.49707 -4.98946 1.70574 5.06511 
61 2 Cl 9.92458 4.71464 12.0951 -8.83152 8.7674 -5.56057 
62 2 Cl 8.65517 1.05548 10.819 6.47806 9.33258 3.23612 
63 2 Cl 6.86534 12.9094 7.56545 9.72243 4.04758 -8.53605 
64 2 Cl 3.53914 6.74092 10.7175 -5.19528 4.33961 5.2466 
ITEM: TIMESTEP
100
ITEM: NUMBER OF ATOMS
64
ITEM: BOX BOUNDS pp pp pp
0.0000000000000000e+00 1.3100000000000000e+01
0.0000000000000000e+00 1.3100000000000000e+01
0.0000000000000000e+00 1.3100000000000000e+01
ITEM: ATOMS id type element x y z vx vy vz 
1 1 Na 0.169155 8.40349 10.7043 -1.31123 -18.9213 12.0469 
2 1 Na 4.43746 10.5934 1.24906 -3.75846 17.4207 8.12276 
3 1 Na 10.9841 0.533651 12.4797 12.4145 -1.85854 -3.50849 
4 1 Na 8.75069 3.91392 1.59484 16.0677 13.5634 -13.3606 
5 1 Na 2.11718 3.39117 9.35633 -17.2652 17.6256 -2.59601 
6 1 Na 1.54036 5.611 0.649458 8.01809 -21.3336 -9.58605 
7 1 Na 12.7409 9.4558 4.56157 1.04639 3.7565 -5.49421 
8 1 Na 5.84753 2.03505 2.04448 11.4281 -9.23875 -1.66815 
9 1 Na 9.57685 5.60125 4.42234 23.492 -8.45886 -19.6367 
10 1 Na 5.73756 11.7054 3.47326 -21.8881 -11.8155 0.472984 
11 1 Na 0.104764 12.5343 2.46618 5.20782 -13.8624 -8.28844 
12 1 Na 1.12561 9.64407 7.59169 -7.1455 -10.3245 -7.37867 
13 1 Na 5.22084 6.39244 9.04863 -14.3836 5.83521 -1.27646 
14 1 Na 11.2484 -0.191567 5.51463 10.441 -14.2885 -6.10362 
15 1 Na 10.3984 10.5189 1.5813 15.1803 -4.35326 -9.86841 
16 1 Na 10.4546 9.18436 4.16844 -4.59479 -20.8299 3.56429 
17 1 Na 6.36044 12.7373 9.15716 -21.8611 2.68832 -15.9195 
18 1 Na 9.95834 4.33361 11.9629 18.1613 2.96579 -4.23712 
19 1 Na 5.13012 11.9451 5.5402 -25.7828 -22.2099 28.2572 
20 1 Na 7.91206 9.28681 13.3894 -29.2948 2.29023 20.5864 
21 1 Na 2.31554 12.8751 7.72105 24.4349 15.7538 5.39669 
22 1 Na 9.13089 1.6633 7.92694 0.363038 6.79805 6.7273 
23 1 Na 8.78826 9.86572 8.04581 2.5606 -9.1061 6.79351 
24 1 Na 5.36503 4.18566 5.35698 -3.73892 3.96662 -0.224949 
25 1 Na 10.322 12.7026 10.4933 -3.93207 -4.60656 15.9494 
26 1 Na 8.57552 2.14496 5.25959 16.8273 -11.7458 -1.55218 
27 1 Na 9.9441 5.73922 7.16067 -9.989 0.106499 9.58323 
28 1 Na 3.12719 6.30009 5.58209 -1.69487 5.80898 14.1404 
29 1 Na 5.83349 1.79981 11.5834 -0.421237 0.108734 -4.94077 
30 1 Na 2.4831 7.59106 2.33441 16.1569 -5.72699 -9.09458 
31 1 Na 2.83601 10.5943 9.04886 11.8932 20.0076 10.4599 
32 1 Na 4.52832 8.85943 11.781 1.8873 1.4823 7.98715 
33 2 Cl 11.1171 10.7465 11.2433 25.1273 -1.81614 -5.67584 
34 2 Cl 5.78832 4.25063 10.9916 2.23514 -3.49402 1.28671 
35 2 Cl 11.5792 3.68021 1.97177 -19.4293 2.7753 -14.8661 
36 2 Cl 2.31489 8.99232 -0.0711326 -12.8874 -0.822155 -8.15868 
37 2 Cl 3.57235 8.01094 7.38766 6.29453 -3.57336 5.15031 
38 2 Cl 4.64841 4.16775 2.31684 -16.3498 4.48237 9.35912 
39 2 Cl 13.2458 7.52772 2.3236 6.072 8.92282 2.15124 
40 2 Cl 9.36898 7.71039 5.73943 -14.221 11.9428 6.19497 
41 2 Cl 6.2123 8.44328 10.2706 -7.70048 -9.22438 2.66869 
42 2 Cl 7.91382 4.36101 3.90975 2.17591 11.8919 24.0314 
43 2 Cl 11.9047 10.4449 6.56975 13.5582 16.1373 2.38724 
44 2 Cl 5.2017 10.838 8.65519 -5.61967 -1.47896 -1.07482 
45 2 Cl 0.3867 1.67007 8.101 -6.05757 -7.84503 5.0266 
46 2 Cl 7.07621 11.1748 0.744836 -7.4638 -11.9289 -13.6333 
47 2 Cl 4.30686 12.8982 11.6395 -14.6349 -3.55276 3.51195 
48 2 Cl 8.55668 12.1009 9.35744 4.18847 6.85901 -6.0859 
49 2 Cl 2.79284 11.7977 5.82136 -3.83247 3.84294 4.49351 
50 2 Cl 5.51668 9.02901 3.69637 -5.01642 18.1907 1.627 
51 2 Cl 0.700379 11.7661 9.77818 4.14592 -10.2944 -11.4053 
52 2 Cl 10.5543 8.59774 9.93226 6.05682 -2.68703 -13.315 
53 2 Cl 6.07861 1.59507 4.93757 18.8592 6.42798 -11.8486 
54 2 Cl 1.34651 3.39422 0.409917 5.09279 -2.11383 15.4346 
55 2 Cl 11.5675 4.82102 7.18896 -0.168227 10.509 3.22033 
56 2 Cl 8.75146 1.50327 1.16166 12.6809 -1.89657 -12.4588 
57 2 Cl 4.11956 4.57589 7.28539 -3.66994 0.342301 10.1209 
58 2 Cl 10.5974 2.176 6.12755 -14.186 -2.64345 10.596 
59 2 Cl 4.26036 0.516269 2.79365 1.49126 -7.36501 -4.6908 
60 2 Cl 0.491118 7.57487 5.99553 13.8922 -5.79691 -30.9053 
61 2 Cl 9.31397 6.61037 13.4969 -3.42053 3.62523 27.1353 
62 2 Cl 10.147 1.93278 10.1517 2.59112 -3.08652 -0.909154 
63 2 Cl 8.20503 11.999 5.60278 -9.80212 -0.754148 -7.77344 
64 2 Cl 1.33381 6.65151 9.99368 1.50162 18.8519 -8.0379 
ITEM: TIMESTEP
200
ITEM: NUMBER OF ATOMS
64
ITEM: BOX BOUNDS pp pp pp
0.0000000000000000e+00 1.3100000000000000e+01
0.0000000000000000e+00 1.3100000000000000e+01
0.0000000000000000e+00 1.3100000000000000e+01
ITEM: ATOMS id type element x y z vx vy vz 
1 1 Na 0.893602 8.25218 11.9831 2.52417 0.816337 15.2726 
2 1 Na 3.28752 10.6273 0.215953 10.1958 0.469121 6.5 
3 1 Na 12.7539 1.60577 12.5968 11.0615 -0.982496 4.72975 
4 1 Na 8.08462 4.48192 12.5113 12.8882 -17.4193 8.03074 
5 1 Na 0.390213 4.39626 8.50888 4.23609 9.99646 -7.39639 
6 1 Na 3.36492 4.28885 12.617 16.2181 -17.3587 0.158544 
7 1 Na 1.73061 9.7537 4.21541 -5.99355 8.38946 4.68711 
8 1 Na 6.70509 0.0206415 1.88319 2.75927 -13.3988 16.6722 
9 1 Na 1.91076 4.26507 2.94266 7.01946 -4.25385 16 
10 1 Na 5.09383 12.3489 4.79747 -3.83355 -4.94529 -3.98277 
11 1 Na 1.6958 13.3203 2.57926 -3.43384 21.1073 13.7224 
12 1 Na 12.6806 8.18775 7.29415 -8.9477 2.93242 -15.829 
13 1 Na 4.89644 5.43729 10.075 -2.77767 -10.9927 -6.3681 
14 1 Na 0.856601 12.7552 6.95245 4.47359 -0.240237 11.9217 
15 1 Na 8.53393 9.8194 1.47645 -17.9113 11.0556 18.8438 
16 1 Na 10.1386 6.90784 7.42774 10.6588 -4.60674 2.41403 
17 1 Na 6.35904 12.9378 7.6736 10.6495 -0.959019 6.99892 
18 1 Na 11.3565 5.5962 11.176 -6.09117 5.92449 6.73948 
19 1 Na 5.4198 8.40846 5.63041 5.4613 -13.2378 0.729656 
20 1 Na 5.53508 7.08245 2.83071 -6.4687 5.42248 4.08754 
21 1 Na 2.31961 0.862738 9.07434 -7.32755 -9.80829 -3.58794 
22 1 Na 9.73472 2.44771 8.28533 4.71948 1.89228 -14.7211 
23 1 Na 7.68452 10.7268 9.0169 -5.59108 15.8569 5.30833 
24 1 Na 5.70685 4.20915 5.45666 6.01219 -7.5302 2.97695 
25 1 Na 9.76594 0.412077 11.3489 4.66046 13.9623 11.4607 
26 1 Na 10.2309 0.752288 2.8336 4.45471 1.1758 -1.97633 
27 1 Na 7.66645 6.92637 9.17238 -0.0103017 4.26181 -5.82214 
28 1 Na 1.84826 6.09769 6.3568 -7.06518 2.82764 -2.83844 
29 1 Na 5.36034 0.594281 11.8738 -9.34914 -10.0305 1.94943 
30 1 Na 1.86082 7.7069 1.43166 -18.0995 7.42912 -6.34061 
31 1 Na 2.13201 10.1447 10.3045 4.46111 6.00405 -14.0453 
32 1 Na 6.33529 9.36031 11.8409 0.993188 14.2222 16.3714 
33 2 Cl 0.0196478 12.3923 12.7153 0.59027 2.59573 -9.5982 
34 2 Cl 5.73769 3.38334 11.4906 -4.92998 -2.39962 4.45264 
35 2 Cl 12.0958 5.11391 0.643461 9.5036 13.018 -7.30169 
36 2 Cl 3.75888 7.88203 12.4855 8.95148 -8.04394 -1.38899 
37 2 Cl 3.65485 7.74215 7.30886 -2.15298 -10.4117 -3.4481 
38 2 Cl 4.61141 4.74845 2.38699 13.0516 3.51413 -9.63245 
39 2 Cl 12.2546 9.18282 0.765511 1.93703 -4.85993 -11.547 
40 2 Cl 6.88963 8.97305 7.29256 4.50965 2.04948 10.8151 
41 2 Cl 7.29599 7.00386 11.5214 2.94746 -0.473767 0.629437 
42 2 Cl 7.26031 5.35141 7.03645 -7.88974 -1.14126 10.1441 
43 2 Cl 11.5383 9.40321 5.29551 -3.99796 -9.94522 -0.862894 
44 2 Cl 5.79383 12.1925 10.3177 0.950086 6.23262 -11.5786 
45 2 Cl 12.9316 1.72114 8.56145 -1.66072 -15.0689 -6.86542 
46 2 Cl 5.85264 11.3608 0.409096 4.82695 -1.44887 -2.02447 
47 2 Cl 2.4124 1.38468 11.3406 -8.8322 8.80526 6.45893 
48 2 Cl 8.81313 12.9828 8.92102 7.69853 8.16325 6.62794 
49 2 Cl 2.26926 12.5266 4.63988 2.97344 0.339063 -1.14754 
50 2 Cl 4.06748 9.49205 2.42321 -11.0371 -3.12787 4.35145 
51 2 Cl 1.29637 10.8888 7.80522 -4.33337 -0.184427 -1.32064 
52 2 Cl 10.4288 7.20742 9.87725 -3.24715 5.46566 4.96038 
53 2 Cl 6.79821 1.97982 4.06038 3.42548 -1.89289 -0.80459 
54 2 Cl 0.833227 2.80482 1.81693 -4.75793 5.77786 6.72338 
55 2 Cl 12.3384 6.20912 5.66728 -6.17969 -1.61804 3.65825 
56 2 Cl 8.6958 12.6905 0.538985 -0.598835 -8.50859 3.5773 
57 2 Cl 3.13838 4.09375 7.83449 -1.42524 0.211617 -3.92823 
58 2 Cl 9.96365 1.77318 5.90018 0.604068 -1.14925 -16.3609 
59 2 Cl 4.32663 0.623168 1.82619 4.42068 5.94609 -17.1286 
60 2 Cl 1.66648 7.42722 4.21348 9.72401 2.70407 -10.9363 
61 2 Cl 7.9028 7.47629 1.68508 -7.35231 -0.984344 -6.51046 
62 2 Cl 10.7112 2.90043 10.7732 -7.04738 11.7041 2.6972 
63 2 Cl 8.76468 11.5908 3.58372 -3.1752 -4.93077 -12.1239 
64 2 Cl 1.30201 6.32018 10.4742 -10.8224 -11.9999 9.31234 
ITEM: TIMESTEP
300
ITEM: NUMBER OF ATOMS
64
ITEM: BOX BOUNDS pp pp pp
0.0000000000000000e+00 1.3100000000000000e+01
0.0000000000000000e+00 1.3100000000000000e+01
0.0000000000000000e+00 1.3100000000000000e+01
ITEM: ATOMS id type element x y z vx vy vz 
1 1 Na 1.84178 6.54238 11.4554 8.76203 -2.51528 -9.85535 
2 1 Na 2.87839 11.7046 0.509029 0.437496 0.00535369 -2.90852 
3 1 Na -0.00592289 4.08808 0.263932 -4.55608 13.4927 9.53191 
4 1 Na 7.50601 4.3628 0.122006 7.46755 3.53958 8.71519 
5 1 Na 1.06577 3.42735 8.804 9.90031 6.85226 1.09637 
6 1 Na 4.29871 3.20603 0.163245 1.10906 -3.07586 5.95086 
7 1 Na 1.57709 10.6443 4.92056 6.20645 -2.12103 -6.2999 
8 1 Na 6.87654 1.11696 0.580666 -0.28407 -7.82127 -9.54534 
9 1 Na 4.11353 3.15743 4.22232 11.6466 -5.70967 -2.17629 
10 1 Na 5.34808 12.0366 4.4014 -8.72338 4.20047 -1.80435 
11 1 Na 1.46013 1.75963 4.08538 0.518078 4.78022 8.41005 
12 1 Na 12.022 9.33721 7.01081 6.19213 13.634 8.14131 
13 1 Na 4.51866 3.88939 8.47148 3.86889 -11.5211 -4.79426 
14 1 Na 12.1293 0.440834 5.6523 6.28618 -2.40938 2.91258 
15 1 Na 8.39001 10.2325 2.28681 -4.74571 -7.48107 -7.29496 
16 1 Na 9.47305 6.97669 5.79973 5.84055 3.42658 -10.9903 
17 1 Na 7.95468 0.879888 6.7018 1.30476 -8.96289 -8.1464 
18 1 Na 10.9483 6.95789 11.4329 -1.48435 -1.81166 -3.66272 
19 1 Na 5.69884 7.77016 6.69778 -7.23335 0.597917 -9.08998 
20 1 Na 2.79935 7.34721 1.74605 -5.02936 12.4125 14.5159 
21 1 Na 2.16386 0.467803 9.3866 12.1563 -6.67436 -8.09759 
22 1 Na 10.5312 3.0545 7.36184 -6.79302 6.18402 8.77765 
23 1 Na 9.90898 11.2429 10.3371 10.9681 1.20651 4.68319 
24 1 Na 6.87697 3.95723 4.53192 8.15427 -3.18162 -3.34897 
25 1 Na 11.326 1.42418 10.9533 3.6504 6.28006 -0.472152 
26 1 Na 10.3124 12.6991 3.65544 1.37165 -4.54822 -1.03158 
27 1 Na 8.00302 7.26681 9.40775 0.105881 -2.78854 0.376424 
28 1 Na 1.66783 6.01022 6.67716 3.78023 1.89543 0.331865 
29 1 Na 5.3294 0.259176 10.6264 4.00384 -11.7756 -3.13168 
30 1 Na 12.2852 7.58657 2.12253 -2.9841 -12.7442 -24.8406 
31 1 Na 4.64169 9.60326 8.51587 -1.05705 10.0163 -1.91193 
32 1 Na 5.80298 7.31708 12.8319 -5.64213 2.12474 6.46453 
33 2 Cl 0.383889 12.8686 11.9555 -2.27305 5.0722 8.67464 
34 2 Cl 6.40422 2.48653 11.9353 1.38537 -3.2643 5.8285 
35 2 Cl 1.15334 6.09169 0.794026 1.7551 -5.77348 0.245706 
36 2 Cl 3.50514 8.91112 11.9816 0.881934 1.16951 -1.22229 
37 2 Cl 3.70566 7.00225 8.51117 3.39983 -7.65548 7.40578 
38 2 Cl 5.85038 4.38823 2.57982 6.84399 -6.53172 -9.05744 
39 2 Cl 11.6871 9.03541 12.9436 -8.7112 -6.19156 -1.34687 
40 2 Cl 7.14637 9.29999 8.04962 -10.8318 -3.23321 3.53432 
41 2 Cl 7.53695 6.10852 11.1951 -6.65245 9.88301 5.71078 
42 2 Cl 7.15676 5.32157 7.1243 6.88542 6.31569 -10.5442 
43 2 Cl 11.3759 8.46682 4.43852 2.19002 -4.03893 -1.18101 
44 2 Cl 3.91897 12.3564 8.80844 -4.75397 -4.61665 -4.20425 
45 2 Cl 12.7553 0.480532 8.13208 -3.48611 -5.48992 1.66822 
46 2 Cl 6.17643 11.3227 0.747592 3.15895 -0.65706 -0.950381 
47 2 Cl 2.71655 2.75243 10.9611 -5.12402 4.65521 -13.5698 
48 2 Cl 9.21112 0.721739 8.76611 4.21997 -5.00407 -6.47338 
49 2 Cl 1.83332 12.9946 5.30626 -11.291 1.47781 5.65841 
50 2 Cl 3.22292 10.1895 3.20975 -0.501784 -2.20155 -7.80542 
51 2 Cl 1.11238 10.3167 7.386 -5.58562 -9.25236 9.08736 
52 2 Cl 10.1294 8.04294 9.0323 4.85404 0.516743 6.34254 
53 2 Cl 5.74306 1.52615 5.08536 -10.0223 12.3965 3.96202 
54 2 Cl 0.0979687 2.63817 2.09421 -1.99347 -1.33783 -10.2282 
55 2 Cl 11.9397 5.19835 7.00497 -3.24418 9.25203 -0.902537 
56 2 Cl 9.50173 0.175273 0.508715 -2.19936 0.738335 2.54014 
57 2 Cl 2.753 3.54908 6.2812 -2.90916 0.494841 -0.353147 
58 2 Cl 10.4002 1.79124 4.60357 -6.88848 0.886967 5.67677 
59 2 Cl 4.25524 0.924488 1.8863 2.36933 11.2658 0.675939 
60 2 Cl 2.53981 6.1499 4.10301 -3.19517 -4.4785 10.5901 
61 2 Cl 7.25158 7.95888 2.20392 1.53671 6.10276 2.79255 
62 2 Cl 10.4942 3.7529 12.7485 1.91258 -2.26343 21.5333 
63 2 Cl 7.9616 11.502 4.60096 2.52102 -2.4668 -0.911899 
64 2 Cl 12.7082 4.84989 10.6069 3.46379 7.14355 -7.5612 
ITEM: TIMESTEP
400
ITEM: NUMBER OF ATOMS
64
ITEM: BOX BOUNDS pp pp pp
0.0000000000000000e+00 1.3100000000000000e+01
0.0000000000000000e+00 1.3100000000000000e+01
0.0000000000000000e+00 1.3100000000000000e+01
ITEM: ATOMS id type element x y z vx vy vz 
1 1 Na 2.42429 6.5684 11.6505 -4.96677 3.1523 1.68677 
2 1 Na 3.20984 11.7224 12.8484 -6.92634 5.7571 -6.83767 
3 1 Na 1.38825 2.90581 0.309189 11.8559 -9.2724 1.49885 
4 1 Na 8.08675 5.97301 0.787638 8.30961 1.89339 -7.81548 
5 1 Na 0.278402 3.64183 8.97847 6.00508 -2.9212 13.2941 
6 1 Na 5.09259 3.40652 11.715 12.0569 2.48689 -5.70861 
7 1 Na 1.4122 9.89866 5.63163 7.51311 0.458783 0.875738 
8 1 Na 6.18643 1.50419 0.861764 -7.52709 -9.07944 2.68764 
9 1 Na 4.66145 4.31193 3.58108 3.44374 -6.34499 -1.66954 
10 1 Na 3.39099 12.4113 4.25451 -15.9638 -0.865041 1.99034 
11 1 Na 1.56235 3.41207 3.85271 -0.713324 -1.67176 -4.52503 
12 1 Na 11.3268 9.57581 6.97544 3.35143 -6.86444 -1.06925 
13 1 Na 4.16032 3.21252 7.60352 -1.51115 2.69959 -5.93215 
14 1 Na 11.7605 0.54991 7.37426 1.30728 -7.4117 7.41343 
15 1 Na 8.73914 9.81796 1.27784 -1.56454 12.3597 0.919305 
16 1 Na 10.5872 7.0004 4.33769 -5.15437 -0.743187 -9.80116 
17 1 Na 6.76769 13.002 7.03216 -8.63031 5.08484 0.619818 
18 1 Na 10.1343 7.44465 10.7764 1.22609 11.7897 -0.802952 
19 1 Na 5.40634 6.65323 6.0868 7.60855 -5.21158 -5.03562 
20 1 Na 1.7156 8.24443 2.40697 0.17826 0.74402 -4.01259 
21 1 Na 2.5575 0.609662 8.78643 -1.91446 1.81952 -2.40582 
22 1 Na 9.26844 3.67087 7.73969 -11.462 2.77114 -4.54076 
23 1 Na 11.6432 11.211 11.2715 -2.90662 -9.42996 -0.88092 
24 1 Na 8.21234 3.71366 3.79098 1.66322 1.91528 3.67061 
25 1 Na 10.6716 1.20328 12.4755 -8.51725 -4.57459 5.7228 
26 1 Na 10.9284 0.136183 2.99636 3.09846 2.97258 -0.228389 
27 1 Na 7.70554 7.60106 8.47569 1.98698 9.32117 2.76904 
28 1 Na 1.17147 5.95565 6.76899 10.8765 -10.4927 -6.26886 
29 1 Na 7.20253 12.0748 10.6625 2.19103 -9.56327 8.93518 
30 1 Na 12.0651 6.9104 1.22648 12.0507 -8.03284 -0.226684 
31 1 Na 4.12311 8.33395 9.28549 -1.47711 -4.7845 3.90716 
32 1 Na 5.50349 9.25286 1.247 -0.299542 2.71645 -0.300778 
33 2 Cl 0.783743 12.8269 12.1209 7.12431 -2.32138 3.6922 
34 2 Cl 6.47244 1.43453 11.598 8.31253 -2.33363 -3.15656 
35 2 Cl 1.62676 5.57754 0.890398 -2.48202 -10.4913 13.1369 
36 2 Cl 2.92672 9.11775 12.0918 -5.67949 -2.23115 3.82104 
37 2 Cl 4.04658 5.76274 8.29729 -2.54054 -1.38263 5.5818 
38 2 Cl 6.80025 4.10297 1.71089 5.51102 7.949 0.303388 
39 2 Cl 9.87463 7.6708 0.209482 -1.35276 -13.2301 1.98755 
40 2 Cl 5.61997 8.81991 7.41605 5.5386 9.79076 -9.00472 
41 2 Cl 6.42587 7.60881 11.1774 -4.92839 6.42531 -9.9366 
42 2 Cl 8.33809 5.89691 5.90285 3.67794 -1.77145 2.82284 
43 2 Cl 12.8884 8.68809 3.96226 3.51144 -3.18436 -1.36496 
44 2 Cl 5.10835 12.9044 8.67267 5.00427 -1.17215 -6.22156 
45 2 Cl 11.851 2.07844 9.52498 -8.72614 10.0223 3.28625 
46 2 Cl 5.91441 11.3463 12.5117 0.247019 1.03036 3.34041 
47 2 Cl 2.99749 2.56694 10.3251 -8.39555 2.28321 7.89058 
48 2 Cl 8.77945 12.9359 8.96134 10.3559 0.0479755 -3.22104 
49 2 Cl 1.31949 12.5434 5.52906 -2.16397 3.73858 6.48806 
50 2 Cl 3.62309 9.71869 2.87865 -1.18642 -3.89155 3.97762 
51 2 Cl 1.40978 8.9158 7.90322 -2.73957 -1.26588 5.00756 
52 2 Cl 10.1773 9.47739 9.06639 -5.22651 4.97656 -6.1941 
53 2 Cl 6.53196 2.86116 5.8116 -1.65964 9.00743 -3.6258 
54 2 Cl 13.0156 1.9008 2.55438 -7.61889 -3.14853 0.854789 
55 2 Cl 11.4138 5.38099 7.2283 -6.19666 -3.18659 1.53226 
56 2 Cl 9.78966 11.9613 12.6651 9.68575 -2.61008 -7.79924 
57 2 Cl 1.60146 2.80295 6.64417 -10.3786 -4.95183 3.03257 
58 2 Cl 9.74052 1.35347 5.62629 8.5141 -4.12377 -5.28619 
59 2 Cl 3.79589 2.0734 2.23415 -7.64433 8.13095 0.164118 
60 2 Cl 3.14381 6.10725 4.66129 -4.23149 -3.7137 -8.73244 
61 2 Cl 7.40648 7.65674 2.89423 -1.91456 5.94491 4.4159 
62 2 Cl 10.8188 4.85357 1.6618 1.72571 11.1705 6.92561 
63 2 Cl 8.53383 11.4331 3.10851 7.75902 2.63562 -5.04705 
64 2 Cl 0.112131 5.65715 10.8915 -1.75263 0.873158 -0.842063 
ITEM: TIMESTEP
500
ITEM: NUMBER OF ATOMS
64
ITEM: BOX BOUNDS pp pp pp
0.0000000000000000e+00 1.3100000000000000e+01
0.0000000000000000e+00 1.3100000000000000e+01
0.0000000000000000e+00 1.3100000000000000e+01
ITEM: ATOMS id type element x y z vx vy vz 
1 1 Na 2.56676 5.55647 11.7918 3.15736 -1.69539 15.874 
2 1 Na 3.22853 10.5076 12.0906 1.79041 -8.73847 7.81235 
3 1 Na 1.76933 1.57408 12.9207 5.63022 -2.21241 -5.60867 
4 1 Na 8.60118 6.30771 1.03508 -2.60731 -2.00359 -6.29094 
5 1 Na 12.6965 4.23682 9.64231 8.29883 -5.11635 6.20863 
6 1 Na 5.36367 2.81578 10.5488 -6.82805 -12.0624 -1.21727 
7 1 Na 2.58845 10.0214 6.17352 1.88922 11.63 -1.69969 
8 1 Na 6.22068 0.873294 1.60307 4.36802 -15.7194 -2.69835 
9 1 Na 4.40531 3.65898 3.08548 -0.0673639 -8.86121 3.23518 
10 1 Na 1.55259 12.2832 3.15671 -0.690157 -13.217 -0.980248 
11 1 Na 0.63699 3.6322 3.11105 -7.74158 0.482021 -3.90816 
12 1 Na 12.1105 8.0227 6.99394 5.04418 9.03315 -3.69266 
13 1 Na 4.24413 3.1437 7.43675 1.89059 2.72137 -0.812613 
14 1 Na 11.8258 0.891906 7.55701 -3.69602 -4.58855 0.856384 
15 1 Na 9.08561 10.3028 1.04268 -4.72145 0.544326 -6.16868 
16 1 Na 9.50222 8.28459 4.36065 8.07394 0.346678 -0.509479 
17 1 Na 7.87992 0.199071 5.1256 -4.15057 -2.97631 -5.99242 
18 1 Na 10.4682 7.20539 10.387 2.72685 -5.30194 7.27268 
19 1 Na 5.98016 7.44865 4.36834 -2.79839 -2.83259 0.641332 
20 1 Na 2.23058 7.21631 2.81846 -16.7586 5.27667 -0.608171 
21 1 Na 1.80175 0.362096 8.90498 1.1944 -2.04775 5.95261 
22 1 Na 9.94456 4.26497 7.76461 -8.61668 10.9528 -5.89564 
23 1 Na 12.1455 10.948 10.2222 -2.65938 5.51738 -3.2423 
24 1 Na 8.12083 3.8823 3.99332 -6.10219 12.322 -2.11189 
25 1 Na 10.5259 0.943048 13.1795 2.58034 0.913294 10.2945 
26 1 Na 11.3042 12.743 3.30308 -11.7072 -3.12595 1.27553 
27 1 Na 7.7893 9.28009 8.19868 4.10586 5.81635 -3.57222 
28 1 Na 1.59834 5.75442 7.41938 5.06719 -4.93609 2.94241 
29 1 Na 8.43083 0.42301 10.2055 -2.78794 15.9468 -10.814 
30 1 Na 11.9973 5.74989 0.837906 10.083 4.62082 -4.07354 
31 1 Na 4.16525 8.21221 8.78387 11.1299 -10.0209 -6.8779 
32 1 Na 4.67517 9.38854 1.56037 -2.3947 5.86814 6.14535 
33 2 Cl 1.3573 12.2246 10.978 5.92168 -4.79709 -12.9212 
34 2 Cl 7.24292 1.87155 11.76 -6.91961 1.33113 -2.17529 
35 2 Cl 1.22761 5.10352 1.29196 2.03198 -1.07883 0.650291 
36 2 Cl 3.12696 8.07473 0.14843 9.56222 -8.27162 6.28874 
37 2 Cl 3.6801 5.63146 9.05831 7.4345 -1.9644 -1.85354 
38 2 Cl 7.16412 3.50927 1.8732 0.108559 9.1849 6.01434 
39 2 Cl 10.7897 8.44336 0.125486 -2.63258 -5.18094 0.799279 
40 2 Cl 5.28405 9.57107 6.16419 -6.71696 0.887954 5.98668 
41 2 Cl 5.96793 8.52098 10.3939 2.6073 10.1743 -4.0003 
42 2 Cl 8.28611 6.47842 6.09692 -0.587256 9.10974 -0.806207 
43 2 Cl 12.5422 8.11084 4.4511 -3.04394 -0.451574 5.98668 
44 2 Cl 4.21176 0.780696 8.47018 2.05155 11.2836 1.75108 
45 2 Cl 10.2688 2.88215 10.0082 -6.14681 -3.65899 3.11235 
46 2 Cl 5.64706 11.4183 0.20899 -1.34666 3.26363 -9.98644 
47 2 Cl 3.26986 3.18481 11.8441 8.60673 0.634503 10.7355 
48 2 Cl 9.13122 12.4518 7.59833 -1.81204 -2.68272 -11.0298 
49 2 Cl 0.452511 11.7292 7.21098 -6.60457 -1.60346 3.09706 
50 2 Cl 2.81129 10.0062 3.43415 -7.39327 -5.9121 -4.1174 
51 2 Cl 1.5938 8.24579 8.03503 2.16278 -4.35566 -3.57281 
52 2 Cl 10.6954 9.14833 8.33709 1.04046 1.63444 -2.34623 
53 2 Cl 6.26512 2.7917 5.53663 -1.08784 -12.534 -3.17654 
54 2 Cl 12.2678 1.32621 1.66298 -2.2726 -2.18168 3.24903 
55 2 Cl 12.2688 5.12992 7.51374 6.61924 -0.251353 -4.00622 
56 2 Cl 10.2188 11.8667 11.6154 2.26061 3.07332 -0.10123 
57 2 Cl 1.29536 2.91516 8.09277 -5.15263 -5.13143 5.47964 
58 2 Cl 10.242 2.40274 5.91721 4.6715 4.44564 3.86068 
59 2 Cl 3.54229 1.12952 2.58994 -0.461406 1.44296 -1.38386 
60 2 Cl 3.51646 5.88307 5.28169 2.31226 4.47993 2.4891 
61 2 Cl 7.31689 7.985 2.01062 -5.46965 6.28513 -0.945082 
62 2 Cl 10.5308 5.3702 2.80454 3.50797 0.303212 6.45378 
63 2 Cl 8.69608 12.6517 3.00294 3.60622 5.65413 -1.29011 
64 2 Cl 13.1231 5.84582 11.26 -2.12498 -4.40006 3.1177 
ITEM: TIMESTEP
600
ITEM: NUMBER OF ATOMS
64
ITEM: BOX BOUNDS pp pp pp
0.0000000000000000e+00 1.3100000000000000e+01
0.0000000000000000e+00 1.3100000000000000e+01
0.0000000000000000e+00 1.3100000000000000e+01
ITEM: ATOMS id type element x y z vx vy vz 
1 1 Na 2.37915 5.66489 0.543901 -14.5917 3.2664 6.6405 
2 1 Na 4.4414 9.3201 11.0473 -2.48829 5.16957 4.2593 
3 1 Na 2.65884 13.0333 13.0255 5.26671 -6.65683 0.595629 
4 1 Na 7.92609 5.32925 0.970006 -10.3171 -1.87429 1.25181 
5 1 Na 13.0172 3.54425 9.90575 1.42902 3.77319 1.76128 
6 1 Na 5.12161 3.15019 10.994 -6.23054 5.61701 0.409236 
7 1 Na 2.72703 9.71417 6.34235 5.39845 -2.3112 7.84201 
8 1 Na 5.5756 0.400232 0.65451 -2.73799 5.4566 7.64746 
9 1 Na 4.12532 3.65991 2.71515 -1.99158 2.17412 14.1792 
10 1 Na 0.493689 11.0544 2.46617 -14.0255 -10.7059 3.32118 
11 1 Na 12.04 3.19521 3.7704 11.8395 2.88302 -5.69611 
12 1 Na 12.5806 8.86202 7.13624 3.75973 6.94299 -13.2395 
13 1 Na 4.4655 3.09111 6.99353 -0.154798 -5.40666 4.74555 
14 1 Na 11.2686 1.07812 7.66586 4.42802 9.63824 3.16347 
15 1 Na 8.42873 9.82749 11.694 11.374 1.92767 -3.62225 
16 1 Na 9.72421 8.40744 3.39984 4.58947 6.45509 -3.16529 
17 1 Na 6.73332 12.8873 4.71705 -8.41744 -5.20481 -4.1632 
18 1 Na 11.5562 7.25228 11.2329 3.65754 -3.26797 -8.96596 
19 1 Na 5.82211 7.66984 4.42976 6.00358 -11.4476 -2.49106 
20 1 Na 2.80156 7.67798 3.62132 15.0672 -5.3762 8.35429 
21 1 Na 3.39651 12.398 8.60997 8.19446 -0.499645 1.68876 
22 1 Na 9.46864 5.76492 7.79572 -1.30357 -3.25414 15.7164 
23 1 Na 12.3887 11.3686 10.4472 7.5535 4.2265 8.84208 
24 1 Na 8.14343 3.95552 4.38583 -10.3 -7.2428 0.477197 
25 1 Na 9.58365 0.899517 12.7364 8.54699 -9.8654 -5.83014 
26 1 Na 10.1597 12.817 4.33202 -13.3212 -5.78364 -0.525545 
27 1 Na 7.89123 9.65737 7.2364 3.21841 -1.32787 -7.49036 
28 1 Na 1.70898 5.41543 7.63908 10.1083 3.94625 0.181983 
29 1 Na 7.5055 1.476 9.0001 7.79931 3.14171 -6.85201 
30 1 Na 11.9191 6.59651 1.30641 -1.68762 -1.35478 5.1868 
31 1 Na 5.56307 7.62793 8.64275 3.2542 -2.736 -6.22937 
32 1 Na 5.0344 10.1058 2.08199 6.98487 -3.63341 5.17349 
33 2 Cl 1.62276 11.1621 11.3311 -5.13435 -2.49572 -4.17695 
34 2 Cl 7.22967 2.00352 11.4241 -0.440189 0.491516 5.35277 
35 2 Cl 0.594909 5.19469 2.92595 -5.94399 4.88079 2.04595 
36 2 Cl 3.82249 7.75071 0.410358 -1.6589 -2.38887 -4.98199 
37 2 Cl 5.66339 4.82006 9.00599 9.25607 1.47684 0.910596 
38 2 Cl 6.02262 5.60213 2.80425 -8.22321 14.9512 -4.44923 
39 2 Cl 9.43853 7.49127 12.7284 -0.398136 3.02994 -5.40244 
40 2 Cl 5.41122 10.1447 6.31094 1.52189 1.2599 -5.70053 
41 2 Cl 6.66475 9.51759 10.0268 -2.95547 -5.8186 -4.87575 
42 2 Cl 8.05204 6.98757 6.17113 -0.844221 -1.55603 2.76747 
43 2 Cl 11.8481 9.4339 3.75302 -2.28093 5.21244 -6.44758 
44 2 Cl 5.63646 0.569085 7.69695 -0.408633 -6.10611 -5.70144 
45 2 Cl 9.96521 2.5321 9.3044 2.52812 -2.77572 -11.9044 
46 2 Cl 4.68683 11.2651 12.9769 -4.0242 -1.05361 -2.84742 
47 2 Cl 3.25988 2.61049 12.8339 -3.8243 -4.91297 -11.0962 
48 2 Cl 9.02855 12.4518 6.66882 -0.0111745 2.12252 -6.06614 
49 2 Cl 0.148309 11.9339 7.17217 2.16744 -4.10089 4.67222 
50 2 Cl 2.97126 10.3346 3.92403 4.83561 -0.569627 4.79419 
51 2 Cl 2.7969 8.16132 8.31404 0.461988 -1.76663 9.56468 
52 2 Cl 10.9073 9.19343 9.17834 4.16241 1.48652 6.11837 
53 2 Cl 6.04127 2.40444 4.06162 8.20396 2.71433 -9.44549 
54 2 Cl 12.0115 0.320261 2.83263 -6.99858 1.89444 8.10078 
55 2 Cl 12.3754 6.18126 7.23589 -1.11527 2.4447 1.91429 
56 2 Cl 10.5872 11.9589 11.7944 -3.07051 -3.25196 -2.08561 
57 2 Cl 1.50937 2.88459 8.16317 6.35668 5.14813 2.73162 
58 2 Cl 9.74137 2.3772 5.26697 -2.78554 -6.38162 -2.58185 
59 2 Cl 3.97047 0.153083 2.61039 8.01652 -11.7219 -3.40666 
60 2 Cl 3.79094 5.77974 5.63853 -5.24536 6.96421 3.4908 
61 2 Cl 7.35371 9.38247 3.44947 -8.88773 14.9926 4.5927 
62 2 Cl 10.1704 5.16656 2.40209 -11.0278 -2.37802 2.05267 
63 2 Cl 8.22508 13.0338 2.2373 -7.36797 5.22245 4.51737 
64 2 Cl 0.62262 5.52458 11.6743 8.60557 -1.88277 6.03244 
ITEM: TIMESTEP
700
ITEM: NUMBER OF ATOMS
64
ITEM: BOX BOUNDS pp pp pp
0.0000000000000000e+00 1.3100000000000000e+01
0.0000000000000000e+00 1.3100000000000000e+01
0.0000000000000000e+00 1.3100000000000000e+01
ITEM: ATOMS id type element x y z vx vy vz 
1 1 Na 1.89618 4.81868 0.332222 5.74441 -12.9946 3.27518 
2 1 Na 3.97282 9.70521 11.0115 6.35638 6.36237 -9.24646 
3 1 Na 3.72166 12.7342 12.6803 1.44407 -1.69678 -8.63672 
4 1 Na 7.67879 5.62868 0.308046 7.16346 -10.7342 -0.289535 
5 1 Na 0.366374 2.94026 10.7045 0.176196 -7.04037 12.3237 
6 1 Na 4.88481 3.71793 10.7741 21.4282 -4.49365 7.31506 
7 1 Na 2.39048 9.24787 7.15103 -5.28706 -7.0601 -7.40267 
8 1 Na 5.44565 1.27885 1.49611 8.81066 -2.29004 8.5222 
9 1 Na 2.84723 4.52661 4.01734 -5.30136 -1.53143 -3.64654 
10 1 Na 1.46891 11.6249 3.62016 -12.4078 5.83605 11.9297 
11 1 Na 11.593 3.60458 3.08719 -7.80506 2.88643 -3.33138 
12 1 Na 11.8116 9.31327 6.39735 -1.46597 -3.69347 1.67194 
13 1 Na 4.79627 3.35252 6.67892 -0.64404 -7.66598 -13.0655 
14 1 Na 12.8754 -0.0327111 5.95179 -2.71747 1.89544 6.01301 
15 1 Na 9.33792 9.1381 10.8395 6.2174 8.20503 9.81858 
16 1 Na 8.2508 8.10032 2.14031 -7.46306 8.65007 -3.28567 
17 1 Na 5.28868 11.9037 4.82564 -0.707619 -7.72009 2.515 
18 1 Na 12.2456 7.55439 10.9757 0.723918 4.9914 10.2368 
19 1 Na 5.95126 7.42017 4.8938 -1.57251 0.907426 11.7399 
20 1 Na 1.63755 7.45663 2.98526 -12.2409 7.63914 3.42053 
21 1 Na 4.05614 13.7873 9.58797 4.67584 16.7884 -0.623638 
22 1 Na 9.51697 5.15191 8.47827 10.3034 -7.57973 3.2635 
23 1 Na 12.5566 11.9664 10.0422 8.26744 4.10489 -2.75263 
24 1 Na 8.32762 4.61052 5.26609 -2.10715 10.664 -7.09226 
25 1 Na 9.62327 1.24942 -0.194908 -5.91323 9.64914 -2.64429 
26 1 Na 9.6522 12.2896 4.15885 -2.74425 -5.05155 -6.87209 
27 1 Na 7.99248 9.6118 7.14819 3.17641 -1.00136 -4.43248 
28 1 Na 1.64552 5.82867 8.04882 -4.41165 -0.780039 -8.69657 
29 1 Na 8.42745 1.47995 7.14855 0.218896 1.48912 -1.15691 
30 1 Na 11.6364 7.05617 2.69112 6.56739 2.12049 7.35385 
31 1 Na 5.49435 6.47986 8.51785 1.44489 -13.9233 4.0374 
32 1 Na 4.65921 9.9694 1.47016 3.88555 -2.4635 -3.85314 