ITEM: TIMESTEP
0
ITEM: NUMBER OF ATOMS
59
ITEM: BOX BOUNDS pp pp pp
-2.757e+00 4.221e+00
-2.423e+00 4.438e+00
0.0000000000000000e+00 6.664e+00
ITEM: ATOMS id type element x y z
2  1 1 1.464   0.000  0.000
3  1 1 1.916   1.392  0.000
4  1 1 0.732   2.253  0.000
5  1 1 -0.452   1.392  0.000
6  1 1 -1.573   1.756  0.728
7  1 1 -0.692  -0.953  0.728
8  1 1 2.156  -0.953  0.728
9  1 1 3.036   1.756  0.728
10 1 1 0.732   3.431  0.728
11 1 1 3.341  -0.568  1.498
12 1 1 3.768   0.749  1.498
13 1 1 3.037   3.002  1.498
14 1 1 1.916   3.815  1.498
15 1 1 -0.452   3.815  1.498
16 1 1 -1.573   3.002  1.498
17 1 1 -2.305   0.749  1.498
18 1 1 -1.877  -0.568  1.498
19 1 1 0.040  -1.960  1.498
20 1 1 1.424  -1.960  1.498
21 1 1 -0.692  -2.198  2.743
22 1 1 -1.877  -1.338  2.743
23 1 1 2.156  -2.198  2.743
24 1 1 3.341  -1.338  2.743
25 1 1 4.221   1.371  2.743
26 1 1 3.768   2.764  2.743
27 1 1 1.464   4.438  2.743
28 1 1 0.000   4.438  2.743
29 1 1 -2.305   2.764  2.743
30 1 1 -2.757   1.371  2.743
31 1 1 0.000  -2.423  3.921
32 1 1 1.464  -2.423  3.921
33 1 1 3.768  -0.749  3.921
34 1 1 4.221   0.643  3.921
35 1 1 3.341   3.353  3.921
36 1 1 2.156   4.213  3.921
37 1 1 -1.877   3.353  3.921
38 1 1 -0.692   4.213  3.921
39 1 1 -2.305  -0.749  3.921
40 1 1 -2.757   0.643  3.921
41 1 1 1.916  -1.801  5.166
42 1 1 3.037  -0.987  5.166
43 1 1 -1.573  -0.987  5.166
44 1 1 -0.452  -1.801  5.166
45 1 1 -2.305   1.266  5.166
46 1 1 -1.877   2.583  5.166
47 1 1 0.040   3.975  5.166
48 1 1 1.424   3.975  5.166
49 1 1 3.768   1.266  5.166
50 1 1 3.341   2.583  5.166
51 1 1 0.732  -1.416  5.936
52 1 1 -1.573   0.259  5.936
53 1 1 -0.692   2.968  5.936
54 1 1 2.156   2.968  5.936
55 1 1 3.036   0.259  5.936
56 1 1 0.000   2.015  6.664
57 1 1 1.464   2.015  6.664
58 1 1 1.916   0.623  6.664
59 1 1 0.732  -0.238  6.664
60 1 1 -0.452   0.623  6.664
ITEM: TIMESTEP
1
ITEM: NUMBER OF ATOMS
59
ITEM: BOX BOUNDS pp pp pp
-2.757e+00 4.221e+00
-2.423e+00 4.438e+00
0.0000000000000000e+00 6.664e+00
ITEM: ATOMS id type element x y z
2  1 1 1.464   0.000  0.000
3  1 1 1.916   1.392  0.000
4  1 1 0.732   2.253  0.000
5  1 1 -0.452   1.392  0.000
6  1 1 -1.573   1.756  0.728
7  1 1 -0.692  -0.953  0.728
8  1 1 2.156  -0.953  0.728
9  1 1 3.036   1.756  0.728
10 1 1 0.732   3.431  0.728
11 1 1 3.341  -0.568  1.498
12 1 1 3.768   0.749  1.498
13 1 1 3.037   3.002  1.498
14 1 1 1.916   3.815  1.498
15 1 1 -0.452   3.815  1.498
16 1 1 -1.573   3.002  1.498
17 1 1 -2.305   0.749  1.498
18 1 1 -1.877  -0.568  1.498
19 1 1 0.040  -1.960  1.498
20 1 1 1.424  -1.960  1.498
21 1 1 -0.692  -2.198  2.743
22 1 1 -1.877  -1.338  2.743
23 1 1 2.156  -2.198  2.743
24 1 1 3.341  -1.338  2.743
25 1 1 4.221   1.371  2.743
26 1 1 3.768   2.764  2.743
27 1 1 1.464   4.438  2.743
28 1 1 0.000   4.438  2.743
29 1 1 -2.305   2.764  2.743
30 1 1 -2.757   1.371  2.743
31 1 1 0.000  -2.423  3.921
32 1 1 1.464  -2.423  3.921
33 1 1 3.768  -0.749  3.921
34 1 1 4.221   0.643  3.921
35 1 1 3.341   3.353  3.921
36 1 1 2.156   4.213  3.921
37 1 1 -1.877   3.353  3.921
38 1 1 -0.692   4.213  3.921
39 1 1 -2.305  -0.749  3.921
40 1 1 -2.757   0.643  3.921
41 1 1 1.916  -1.801  5.166
42 1 1 3.037  -0.987  5.166
43 1 1 -1.573  -0.987  5.166
44 1 1 -0.452  -1.801  5.166
45 1 1 -2.305   1.266  5.166
46 1 1 -1.877   2.583  5.166
47 1 1 0.040   3.975  5.166
48 1 1 1.424   3.975  5.166
49 1 1 3.768   1.266  5.166
50 1 1 3.341   2.583  5.166
51 1 1 0.732  -1.416  5.936
52 1 1 -1.573   0.259  5.936
53 1 1 -0.692   2.968  5.936
54 1 1 2.156   2.968  5.936
55 1 1 3.036   0.259  5.936
56 1 1 0.000   2.015  6.664
57 1 1 1.464   2.015  6.664
58 1 1 1.916   0.623  6.664
59 1 1 0.732  -0.238  6.664
60 1 1 -0.452   0.623  6.664
