ITEM: TIMESTEP
0
ITEM: NUMBER OF ATOMS
100
ITEM: BOX BOUNDS pp pp pp
0.0000000000000000e+00 1.0630000000000001e+01
0.0000000000000000e+00 1.0625999999999999e+01
0.0000000000000000e+00 1.0625000000000000e+01
ITEM: ATOMS id type element x y z vx vy vz fx fy fz 
1 1 Li 8.21 8.74 9.63 -20.2157 -14.5098 -11.6947 -2.72452 1.58638 1.16373 
2 1 Li 2.22 3.93 9.15 -17.9217 -20.6123 -4.35399 -0.32896 -0.95995 -1.82933 
3 1 Li 7.13 3.93 5.06 11.3076 14.1245 20.3059 -3.68762 -1.88555 1.32766 
4 1 Li 0.68 4.4 2.97 -17.7167 4.94817 -1.70922 0.71859 -1.48386 -2.92782 
5 1 Li 3.44 0.21 1.46 13.8821 4.59875 11.5239 0.622944 -3.77873 -3.60084 
6 1 Li 9.7 10.49 3.29 10.0535 13.6243 9.13274 1.95292 -1.02398 1.07707 
7 1 Li 2.22 8.33 5.04 -15.1322 -10.0136 -10.8031 2.97588 0.123642 -1.27862 
8 1 Li 8.69 7.01 4.37 -6.77213 13.0978 -11.207 -2.80567 3.13788 4.01637 
9 1 Li 1.02 7.27 3.78 -0.288504 5.71977 -17.3102 0.773716 3.99976 -0.811062 
10 1 Li 7.34 0.64 1.18 -5.56039 -5.78035 -13.725 -1.12855 -2.91626 -2.26231 
11 1 Li 4.54 1.58 2.39 6.27524 3.24436 13.2689 4.16384 -2.88975 2.86728 
12 1 Li 0.95 8.19 6.47 -5.06409 -17.3777 0.759368 -0.941852 -0.896634 2.89072 
13 1 Li 5.97 2.09 1.06 -1.55469 18.4655 10.3029 1.3005 -0.316791 -0.917643 
14 1 Li 1.88 0.11 2.94 3.60087 -20.8773 -0.24043 -2.46874 -3.33467 -0.32843 
15 1 Li 10.16 6.08 3.25 -12.7167 -8.9884 -5.24607 -0.956506 0.957555 -1.37027 
16 1 Li 6.07 7.79 2.4 -7.28534 0.197758 8.68048 -0.238877 2.26911 -2.96556 
17 1 Li 3.33 7.75 8.66 0.949124 -10.8854 8.72223 -2.79678 3.65983 -1.59104 
18 1 Li 4.5 2.15 5.41 10.1462 13.0701 0.232937 4.72976 0.386116 -1.15009 
19 1 Li 9.81 7.37 8.84 -20.2692 -4.84994 -0.176491 0.0365082 -2.46411 -1.8211 
20 1 Li 3.52 1.79 7.03 -20.0738 -10.265 5.38526 -2.04185 -2.88037 2.23766 
21 1 Li 0.95 0.42 7.47 15.9294 5.92445 3.71101 5.35345 -0.353323 -0.73702 
22 1 Li 4.65 3.63 0.73 8.42797 2.55368 3.99719 2.08139 0.77148 -1.14762 
23 1 Li 3.37 9.39 6.08 14.21 19.2402 2.68992 3.95231 1.44849 0.931705 
24 1 Li 8.59 1.96 2.43 -14.3934 -13.9815 -6.04099 -1.46037 -0.383245 -1.98261 
25 1 Li 4.48 6.41 8.96 5.92314 14.6756 19.8777 -1.08468 -1.42235 -1.4737 
26 1 Li 6.05 9.3 7.93 13.5199 18.2302 -6.67872 0.288589 1.01326 -1.26525 
27 1 Li 3.39 3.12 1.98 20.9007 -14.8482 12.5277 -1.53336 1.59327 -0.880803 
28 1 Li 10.08 0.28 9.19 0.894218 18.4667 -12.8863 -1.24057 -0.579349 3.74991 
29 1 Li 5.63 7.21 10.36 -6.38412 -0.844507 19.522 2.26149 3.44093 1.68126 
30 1 Li 6.19 5.68 4.09 8.50688 -13.0022 8.18255 -0.837222 -0.957695 1.05314 
31 1 Li 1.95 5.56 4.14 -14.8988 18.7397 -12.741 4.06582 -0.381964 4.46394 
32 1 Li 5.77 1.63 8.26 12.8605 16.1149 18.0969 1.28191 -3.37706 0.884325 
33 1 Li 0.87 1.51 10.23 -9.71825 9.45618 -18.0368 2.08824 0.554868 2.20487 
34 1 Li 9.61 3.06 3.55 -11.0824 20.8936 6.27551 0.740026 -1.58696 -0.0503539 
35 1 Li 3.35 6.07 2.63 3.59101 -13.3761 -0.539025 0.82952 -0.349245 -1.76745 
36 1 Li 0.75 9 9.61 -10.7896 8.06139 -2.75452 3.27342 -0.147044 1.86795 
37 1 Li 4.75 3.19 7.86 17.069 -13.8232 14.4488 -0.516643 3.0195 -0.0080336 
38 1 Li 2.82 1.54 4.31 3.55695 19.9559 0.486907 0.560853 -2.52965 2.89666 
39 1 Li 3.16 8.13 0.59 6.81914 12.5038 3.27435 0.0324989 2.28158 -0.0424004 
40 1 Li 2.03 2.97 3.38 -16.204 -18.718 -20.8596 -1.10433 -0.281122 0.154796 
41 1 Li 8.37 2.06 5.43 -20.2925 -7.33022 -8.09664 -4.21108 -2.03698 0.31299 
42 1 Li 3.49 4.98 10.57 -6.34885 -13.8712 -11.9819 -1.35796 0.935607 -0.334675 
43 1 Li 4.79 6.92 3.48 2.68099 12.8276 -6.60691 -0.775168 2.11475 3.09248 
44 1 Li 5.57 6.57 7.42 16.052 -11.6986 18.3772 1.3812 0.973896 -4.8187 
45 1 Li 8.52 4.72 3.15 -16.0199 1.63778 17.983 -3.99876 0.0131546 -2.62371 
46 1 Li 9.58 0.61 6.3 -20.213 -12.6591 18.613 -0.688922 -3.36373 -3.53766 
47 1 Li 8.66 0.9 7.96 7.45364 -13.3575 8.99388 -5.60997 -0.141384 0.931156 
48 1 Li 8.19 9.3 2.12 -11.8422 17.7397 15.9036 0.527263 -0.16031 -3.92964 
49 1 Li 7.17 8.91 3.74 0.253962 -9.0148 -16.1516 -2.57216 2.61132 5.3637 
50 1 Li 0.95 6.69 0.88 -8.65933 18.8732 -19.4516 0.819521 1.1803 -1.1701 
51 2 F 5.81 10.02 0.15 7.78689 -0.338199 3.20155 3.62542 4.62844 0.808862 
52 2 F 7.07 7.16 5.73 8.66155 -1.90175 -10.7134 3.22762 -8.898 -3.03231 
53 2 F 0.66 9.57 2.1 10.9822 -4.02542 5.30785 -1.94677 3.43912 2.8666 
54 2 F 0.35 10.56 4.69 -11.5606 -3.19769 -0.249728 -1.16225 1.69163 -1.24575 
55 2 F 7.02 8.42 0.57 -0.126212 1.95771 4.44884 2.2291 -4.06034 2.45574 
56 2 F 5.74 4.88 1.75 -8.53532 13.0557 7.00252 -0.480199 1.66957 -5.00685 
57 2 F 3.34 3.9 5.04 8.63308 -9.53521 8.90702 -4.34545 -4.30741 -2.50981 
58 2 F 2.08 9.33 7.86 -2.48085 7.82558 2.16741 -5.4728 -3.34328 -4.06912 
59 2 F 5.78 0.01 3.04 -1.86159 4.02089 -7.97033 3.93112 3.70283 -4.08923 
60 2 F 8.96 0.18 0.23 -6.37893 -2.51791 -7.03573 -3.30174 5.39293 -1.74208 
61 2 F 9.64 9.21 0.71 5.4809 12.0643 7.7534 1.04044 -7.8019 -0.203033 
62 2 F 5.78 0.42 5.55 -6.71995 -4.86729 8.60317 -1.09621 7.88893 3.72798 
63 2 F 4.47 5.38 6.36 -7.93551 -3.7466 8.8547 6.51036 0.104749 -0.674631 
64 2 F 2.23 2.35 0.55 7.63482 7.41904 -2.70331 1.44064 1.35964 3.25637 
65 2 F 8.25 10.19 4.81 -9.14966 -5.20359 6.93628 5.51254 -0.408767 -4.72812 
66 2 F 4.8 1.19 9.91 -5.88941 10.6881 4.80172 4.39489 3.34488 2.55629 
67 2 F 4.32 6.38 1.08 10.061 1.533 8.06556 -1.64981 1.39821 -1.47317 
68 2 F 8.2 8.25 6.99 7.78029 -6.59548 0.56889 7.13507 -1.14017 3.31326 
69 2 F 7.26 2.19 7.16 -1.82324 -5.4911 -11.707 4.41516 -1.82832 1.40362 
70 2 F 2.34 1.51 8.42 2.13821 -2.75916 -6.9407 -6.18194 2.13887 -4.1438 
71 2 F 5.78 8.35 5.09 6.89005 -5.30491 4.51709 0.822582 -1.9307 -8.66204 
72 2 F 4.42 8.94 9.78 -12.5526 -12.0261 0.354064 -0.203353 -10.0005 -1.05382 
73 2 F 10.08 1.95 0.76 -2.30739 -6.77942 -3.97509 -4.00556 2.31261 -2.6843 
74 2 F 3.16 6.67 5.72 -11.2761 -9.64795 -2.39841 -5.26258 3.59283 -8.4169 
75 2 F 4.8 0.4 7.38 -12.0422 11.1345 -1.58621 -1.4756 2.69524 0.733847 
76 2 F 4.83 9.62 1.79 9.13737 -9.76752 2.30996 -5.2162 -3.8071 -0.203488 
77 2 F 0.83 1.97 2.07 -12.7333 11.2024 -10.4793 3.20421 0.939769 9.20809 
78 2 F 2.06 10.01 0.04 -4.75904 -9.63393 -2.16613 -2.72984 -0.360665 2.48771 
79 2 F 1.74 6.47 7.17 -6.09951 11.0597 -2.72924 -0.047059 2.82969 -3.02192 
80 2 F 3.46 2.66 9.63 -0.342661 0.347741 -4.7948 3.1867 8.16306 0.0464522 
81 2 F 7.05 1.18 4.26 -1.65362 -6.12382 1.28401 10.6501 1.67499 -1.59767 
82 2 F 2.09 5.01 1.52 9.80909 4.7534 8.11877 -0.00934854 0.0152064 2.31316 
83 2 F 3.57 4.76 7.95 12.5899 -6.88957 2.10113 -1.04656 -1.21362 7.01204 
84 2 F 4.61 8.01 6.61 9.02175 8.93506 -2.91979 -2.57885 0.24053 7.14826 
85 2 F 7.41 6.5 2.82 -11.2881 -1.34185 8.13244 1.1955 0.187223 1.64229 
86 2 F 0.62 6.06 8.62 6.95126 3.07983 2.48117 -6.59607 -2.63388 4.08382 
87 2 F 1.97 8.07 2.29 -12.854 -3.17492 -9.93069 0.118422 -7.98873 -0.598048 
88 2 F 2.12 0.43 5.87 7.65294 -1.92318 -4.60107 1.54487 1.75499 -0.290016 
89 2 F 3.26 10.36 8.99 10.375 -6.47352 9.94997 0.483622 1.56131 -0.414389 
90 2 F 4.91 4.3 3.41 -0.771905 6.22058 -2.04386 -4.71528 2.65797 1.06221 
91 2 F 7.08 7.8 8.53 8.47967 1.98454 10.6443 -3.28392 -3.14835 4.59469 
92 2 F 7.11 9.81 6.49 0.640533 -8.2903 3.998 -0.00158952 1.89439 5.06192 
93 2 F 3.27 9.07 3.54 0.647599 5.84183 -10.6887 -4.07203 -1.52201 0.861486 
94 2 F 4.68 9.96 4.59 7.14318 11.0014 -14.2404 -8.09588 0.447366 0.571843 
95 2 F 6.98 3.25 2.17 11.4662 -3.94465 2.54966 5.79222 -2.41481 -3.96784 
96 2 F 5.91 3.56 6.43 -12.8009 0.591705 -11.6242 -1.12702 0.205782 -0.139001 
97 2 F 7.3 10.46 9.18 7.78532 -0.594497 -14.1456 3.1752 1.291 -2.56026 
98 2 F 6.09 2.65 3.82 9.27118 -10.6202 7.78681 -3.84683 3.16292 1.69559 
99 2 F 1.87 7.18 9.84 5.51429 -2.23626 -8.29785 2.2549 1.10332 3.13923 
100 2 F 9.9 8.57 5.71 8.87666 3.31881 -9.55089 4.35903 -1.87208 -2.06931 
ITEM: TIMESTEP
100
ITEM: NUMBER OF ATOMS
100
ITEM: BOX BOUNDS pp pp pp
0.0000000000000000e+00 1.0630000000000001e+01
0.0000000000000000e+00 1.0625999999999999e+01
0.0000000000000000e+00 1.0625000000000000e+01
ITEM: ATOMS id type element x y z vx vy vz fx fy fz 
1 1 Li 8.88325 5.59858 7.94032 8.76053 -52.7098 -47.5454 -1.01685 1.40686 0.575716 
2 1 Li 8.77863 3.99384 4.95038 2.64927 15.4986 -32.985 0.0436887 0.484821 1.67923 
3 1 Li 6.50278 6.36894 8.42218 40.8257 2.79484 38.0258 -1.74258 -0.680388 -0.864537 
4 1 Li 4.01266 2.60702 7.21875 7.59521 -12.9258 -21.1929 0.704734 0.0661163 0.95027 
5 1 Li 3.7897 8.17882 3.10078 -29.5389 43.8703 17.318 -3.17525 2.41126 -1.25942 
6 1 Li 8.36345 9.45122 5.84454 -36.035 7.65882 4.30046 1.48906 -0.539325 -0.589314 
7 1 Li 9.7806 8.51811 3.25103 7.0236 -20.6556 -8.017 0.877117 0.4812 -0.363868 
8 1 Li 7.37504 7.72945 3.48206 16.5642 24.5306 40.5562 -1.39505 0.0907441 -1.34122 
9 1 Li 2.74468 1.48561 5.20731 22.2443 -17.6045 11.0396 -0.716676 -0.223907 -1.71763 
10 1 Li 8.45391 2.82927 0.816437 -4.38126 -3.50692 11.3004 -0.0188799 0.167811 0.00997922 
11 1 Li 5.87431 0.951807 1.4354 -0.334403 16.6553 24.2562 -0.279129 -1.29718 -2.06159 
12 1 Li 5.8603 1.86327 8.14736 -40.0462 26.2565 -0.988647 -0.0537619 -1.18087 0.591515 
13 1 Li 8.4597 5.19963 0.728983 0.538815 -31.2116 33.4001 1.61757 -0.278186 0.281753 
14 1 Li 0.293851 2.65819 4.20539 13.1951 27.9705 2.45599 -0.486685 -0.0128297 -0.0731483 
15 1 Li 8.50419 7.8101 0.885439 -17.8125 2.96208 16.2719 -0.493502 0.539244 1.20991 
16 1 Li 5.78605 9.45962 2.83483 -14.8729 7.09407 23.1305 1.1498 -1.05113 -0.332461 
17 1 Li 2.10023 5.32592 5.32342 -1.08935 19.4996 0.0972592 0.443573 0.160363 0.169662 
18 1 Li 6.63484 5.26986 2.65731 -0.436928 -21.3252 -40.7632 -1.60392 0.591503 1.55124 
19 1 Li 0.467138 4.51413 9.46399 20.3251 -5.37701 -7.65634 -0.483318 -0.64496 2.13576 
20 1 Li 2.40823 0.747714 0.240812 11.5306 -8.79867 17.1494 0.516817 -0.0784466 0.709776 
21 1 Li 3.13013 10.3626 6.87552 13.2489 -5.54522 17.1287 0.700303 -2.35518 -0.0817966 
22 1 Li 6.39871 6.08668 0.596807 -19.2969 -0.297501 -14.1795 -2.40547 0.0724706 -1.70734 
23 1 Li 7.07698 8.05487 9.05685 48.4964 6.9883 21.8934 -1.08059 2.88755 1.36001 
24 1 Li 0.971155 1.61916 9.20528 -15.8125 30.2009 -19.4728 -0.480767 0.188351 1.33529 
25 1 Li 0.472662 8.44599 7.73605 54.5805 -22.2021 -50.4277 0.603097 0.279178 -2.32298 
26 1 Li 3.0592 6.78574 8.58426 9.69544 -32.3622 -7.8744 1.4712 -0.724792 -1.85677 
27 1 Li 4.07681 3.71603 3.4281 21.235 27.332 27.0285 -1.08227 -1.00034 -0.103829 
28 1 Li 9.25035 0.667701 9.5121 -8.43143 21.8065 -38.0901 -0.975718 0.248182 0.879984 
29 1 Li 5.44302 7.70196 7.06923 36.853 -16.7883 -44.7814 -0.773282 0.533206 1.97028 
30 1 Li 5.28783 8.00058 5.23328 32.4695 -1.64697 -22.4938 -0.287022 0.308004 -1.32747 
31 1 Li 5.53702 4.75052 5.42099 20.3303 -3.51761 -8.35837 -0.546672 -1.28943 0.605201 
32 1 Li 5.63382 3.03612 0.440526 -4.4773 8.61963 0.566163 -0.690324 0.205016 -0.702003 
33 1 Li 0.64017 1.71859 1.81667 -28.3437 -8.962 46.6285 0.380781 -0.0707746 0.305423 
34 1 Li 8.02064 3.508 7.6146 -16.4935 0.504504 24.5708 -3.81523 -1.95085 -0.364035 
35 1 Li 3.05918 6.25537 2.72577 -13.1236 29.5506 -12.1151 2.43568 -0.7866 0.0819298 
36 1 Li 3.53534 9.43265 9.77161 51.484 -21.5759 12.1865 1.8218 -0.936367 -0.833896 
37 1 Li 3.96357 5.04624 9.89674 -21.6008 -13.7726 -34.9587 -0.0236653 0.479846 -0.320442 
38 1 Li 7.26389 1.59515 6.0405 3.67297 36.7737 -15.2626 0.0265093 -0.0109087 -0.621018 
39 1 Li 1.52621 8.66753 4.51521 -38.9849 50.6052 -42.2266 -0.608177 0.334615 1.45809 
40 1 Li 2.20106 4.41439 1.61487 -24.6319 -27.4219 -13.29 -0.706399 -0.62848 -3.80539 
41 1 Li 0.323866 0.868139 6.78375 -12.3343 32.1167 23.7398 -3.04359 -0.616726 -0.397649 
42 1 Li 9.85892 8.00257 9.58984 -10.6391 26.2962 14.1464 -0.0956513 0.529181 -0.189134 
43 1 Li 5.46156 0.415151 5.0236 21.8881 9.55337 -25.3251 -4.27878 3.19264 1.88894 
44 1 Li 0.632712 5.74944 3.24792 42.0975 28.9709 -10.0772 -0.970956 1.3195 -1.15758 
45 1 Li 7.24833 2.73649 3.37027 -25.6965 -10.57 -22.7425 -0.3032 0.448053 0.107117 
46 1 Li 0.37004 5.40021 7.60135 18.843 -22.4876 18.347 1.66255 -1.46905 -1.98154 
47 1 Li 7.68615 10.0015 8.00515 -13.2317 -15.4633 -18.692 -0.290892 2.9051 1.11718 
48 1 Li 8.96551 0.0403575 1.32586 -2.05026 33.8012 20.2506 -0.313905 -1.98508 -0.184375 
49 1 Li 7.87224 0.585129 3.29019 -17.7081 -2.47952 7.99275 -0.968598 -3.13912 -0.507124 
50 1 Li 2.03568 8.13545 0.512752 8.6113 34.0251 -34.1412 -0.565893 -0.358699 1.13041 
51 2 F 5.06124 7.63275 9.70881 11.1198 -7.94781 7.67578 2.05362 -0.351593 1.21036 
52 2 F 6.45798 3.25281 6.89319 -5.491 -10.8482 25.4542 -0.153943 -0.137317 0.293184 
53 2 F 9.29518 10.2263 3.05029 2.29855 14.7662 0.462653 3.16803 2.53815 0.0667803 
54 2 F 0.501793 10.5762 5.54142 3.7503 -4.0719 14.7186 2.26488 0.877156 -1.88178 
55 2 F 8.15225 9.45067 10.3397 11.2572 -8.26187 12.0238 0.519063 -0.837142 0.114876 
56 2 F 4.80781 4.92181 1.28478 5.72607 -18.6518 -13.4863 0.0568674 -0.448819 -1.86459 
57 2 F 0.0170003 4.66058 5.87358 -40.6166 10.3342 -7.52598 0.464334 -0.186433 0.0988168 
58 2 F 9.2934 10.1837 8.3598 0.500515 -11.9753 -12.7833 2.43448 -1.04026 -0.815255 
59 2 F 7.64799 1.2713 1.30659 1.82519 2.88875 6.66285 0.311324 1.1293 0.6307 
60 2 F 7.27384 1.78576 8.93581 7.46344 8.2026 -0.786308 2.33705 0.478354 0.324403 
61 2 F 8.40901 7.08463 9.0927 -14.1992 -11.5473 5.23599 -0.621892 -0.719012 0.97554 
62 2 F 5.31843 10.413 6.90504 -2.53535 -15.5711 -2.4577 1.56559 5.40944 -2.41648 
63 2 F 8.74621 7.66307 4.1782 13.5912 8.44396 -23.3059 0.084688 -1.66705 1.87487 
64 2 F 2.98828 9.64914 0.962806 0.424085 -18.6876 -8.7151 0.087256 0.277729 -0.269671 
65 2 F 7.89529 9.03818 2.27193 -9.09441 33.2271 -19.5855 -2.67898 -1.28878 -1.7043 
66 2 F 7.55504 4.18339 1.95229 -11.4804 -0.12714 4.61872 -0.578051 -2.95571 -1.71456 
67 2 F 1.93603 6.66707 1.77413 -13.2298 -9.81842 14.1629 0.334987 -1.34128 -4.97475 
68 2 F 10.3715 6.75256 8.02608 2.14829 1.70854 22.7587 0.217334 1.15898 1.02187 
69 2 F 8.67115 0.588189 6.19603 -10.7338 -9.10703 6.25815 -0.738386 0.0911682 1.61791 
70 2 F 9.18726 3.93267 8.40296 4.86774 -5.4166 18.1679 5.23091 1.33512 1.60196 
71 2 F 5.20879 7.76151 3.39716 -11.6267 -11.6527 -5.15315 4.14943 -0.205625 0.477694 
72 2 F 6.33429 6.09401 6.01137 17.0595 12.7049 12.1067 0.261022 2.05669 0.511803 
73 2 F 0.731718 2.36149 0.169486 7.92469 13.3825 -10.7737 1.24017 -1.10599 -0.324552 
74 2 F 3.0401 7.10524 4.09686 1.00073 20.7915 -2.94314 -0.533488 -0.348033 3.11862 
75 2 F 5.49799 0.447627 10.0451 -33.4529 -0.865441 -13.0033 -0.747973 0.300864 0.796757 
76 2 F 5.57118 0.427798 2.97056 8.06467 13.0708 -16.7755 -2.05591 3.67064 -3.0706 
77 2 F 9.34974 4.02193 3.51322 -12.8342 -26.4195 -10.0822 1.92189 -0.443595 -1.14866 
78 2 F 0.368672 10.3117 10.5625 -10.8683 -10.7959 18.4736 -0.0892452 0.801086 -0.122141 
79 2 F 2.20258 8.13425 6.62267 26.781 2.85086 28.8009 -0.472138 -0.152892 -0.05742 
80 2 F 3.62701 2.20819 0.012257 8.57862 -28.4623 -10.085 0.130662 0.750544 0.289935 
81 2 F 8.39904 1.69967 4.25707 10.3688 -4.17819 12.6939 0.169219 3.55189 0.598394 
82 2 F 2.33479 4.77459 3.07943 -10.3838 1.04073 -23.6542 -0.231246 -1.2643 4.40793 
83 2 F 2.08801 5.343 9.36412 -1.86731 -0.71668 -12.7711 -0.341683 -1.1481 -0.251008 
84 2 F 3.34353 10.567 4.60803 14.4591 9.04957 4.81089 0.31341 0.0302224 1.15858 
85 2 F 7.20467 6.63363 1.89333 -9.96172 6.56315 -22.0888 0.276567 1.16744 -0.284506 
86 2 F 9.73372 3.86096 0.484609 2.92822 25.856 9.84483 -0.452364 0.976041 -0.651826 
87 2 F 9.60777 6.35795 1.34443 -4.96492 14.9384 -26.6059 0.396865 1.19457 -0.922683 
88 2 F 1.56525 1.17352 7.74807 17.0885 3.53041 -7.83735 2.72393 0.160025 0.305087 
89 2 F 4.29561 9.00592 7.752 -44.0861 10.833 -1.54805 -2.5536 -2.64075 1.37758 
90 2 F 5.24315 4.81961 3.62789 15.7797 -21.5045 13.0166 0.956144 0.434807 1.29646 
91 2 F 7.0511 5.04511 9.07916 16.11 -9.09149 -5.63978 0.67064 -1.594 1.82113 
92 2 F 6.36955 10.1195 4.4436 -30.6579 11.0891 -8.28681 6.02695 -6.58646 1.2676 
93 2 F 0.909739 7.80304 3.05501 0.360931 -36.8333 8.02551 -2.34174 2.02802 2.25295 
94 2 F 3.43003 3.65916 6.21024 -3.19968 9.06903 18.6908 -1.22289 0.908705 -1.86279 
95 2 F 1.89826 2.11708 3.36946 24.2382 -6.92648 12.2265 -0.918101 0.360625 0.1232 
96 2 F 4.67951 5.85648 8.27204 -7.68575 -3.3466 2.25006 -0.409365 -0.653769 -0.619877 
97 2 F 7.09268 8.72873 7.34176 3.52315 -2.59642 -40.6667 -0.714692 -3.27212 -1.31151 
98 2 F 5.77082 2.3024 4.94201 11.4585 -4.71912 33.2585 -0.14296 -0.267793 -1.15848 
99 2 F 2.33726 7.86392 9.43885 3.07927 5.27827 16.9186 -2.1129 2.68963 1.54678 
100 2 F 10.164 8.53077 5.98108 -7.6818 -9.89291 21.0409 -0.427373 -0.741546 1.20856 
ITEM: TIMESTEP
200
ITEM: NUMBER OF ATOMS
100
ITEM: BOX BOUNDS pp pp pp
0.0000000000000000e+00 1.0630000000000001e+01
0.0000000000000000e+00 1.0625999999999999e+01
0.0000000000000000e+00 1.0625000000000000e+01
ITEM: ATOMS id type element x y z vx vy vz fx fy fz 
1 1 Li 9.43535 4.83114 7.59044 -8.27934 -19.5947 -37.4501 0.394433 0.0183243 -0.171702 
2 1 Li 8.48055 6.49927 2.64068 18.5969 27.8232 -11.2426 1.16831 0.75182 -1.94618 
3 1 Li 7.36859 6.33008 8.71458 17.6432 -5.11807 -11.0001 -0.215021 -0.991424 1.10216 
4 1 Li 4.46652 2.4182 7.85174 2.92314 -2.33688 -0.0668873 1.35257 -0.0531425 0.310129 
5 1 Li 1.13868 9.15485 3.91483 3.44147 -2.31385 13.2429 0.608638 0.471458 0.311668 
6 1 Li 8.11985 6.85518 5.44252 -9.98088 -24.9539 9.8609 0.304252 -0.40106 -1.1889 
7 1 Li 9.7484 9.33049 2.66669 -23.9003 -3.13846 -0.305649 -1.05809 -0.904941 -0.642797 
8 1 Li 6.89734 9.36631 1.48463 14.9443 0.21717 -4.24926 1.08949 -1.87699 1.21664 
9 1 Li 1.3339 3.14618 6.56939 -17.5085 30.4393 9.93556 -0.534195 1.23824 -1.25168 
10 1 Li 8.57665 2.97236 1.79883 -10.8097 26.3526 5.28915 -0.601302 1.30628 -0.297938 
11 1 Li 7.57039 0.650327 0.565622 -10.8979 22.6549 18.5422 -0.309774 0.398481 1.28701 
12 1 Li 5.60489 0.622273 9.2243 -3.67217 7.00545 5.05988 -0.608531 1.35011 -0.158374 
13 1 Li 9.41729 8.33289 10.2862 -8.04305 -12.5311 -6.98187 -0.241433 -3.47737 -1.84484 
14 1 Li 0.640412 4.04515 3.6125 -1.17522 21.8054 -29.6364 0.764441 0.189254 -0.563077 
15 1 Li 5.31879 9.47572 10.4382 -3.35028 8.13867 -9.82062 -1.58872 -1.86179 -0.212195 
16 1 Li 4.92443 2.01911 1.43046 5.8359 -2.06888 15.1035 0.0631055 0.179299 0.740702 
17 1 Li 2.88345 7.62199 3.15961 -12.2039 34.3888 10.6455 1.32661 -2.40785 1.42967 
18 1 Li 5.70578 6.49744 2.35878 -4.53202 -8.00985 -3.15252 0.696125 0.0912972 -0.232217 
19 1 Li 9.92611 4.75901 9.90757 18.0146 5.24112 -1.13586 -0.467321 -0.152187 1.57165 
20 1 Li 2.33808 0.415109 9.05303 -4.91916 -8.68056 -19.6817 -0.257096 -2.08568 1.28612 
21 1 Li 1.96156 0.161447 6.06198 0.795425 27.403 -4.48052 -0.9223 -0.138144 1.09297 
22 1 Li 4.68697 6.45314 10.5519 37.0445 12.7953 9.91713 2.07589 -2.92072 -1.59765 
23 1 Li 7.52274 8.57078 7.69001 -42.8658 3.03418 2.3499 0.858754 0.301626 1.4883 
24 1 Li 1.41981 2.74107 8.39816 14.5466 17.1143 -17.5199 -0.572792 -1.10082 2.57279 
25 1 Li 0.471887 6.48354 4.9207 -10.2397 -36.7239 -7.60813 -0.201287 0.0373303 -0.956449 
26 1 Li 1.975 8.16095 7.20664 6.41951 -21.4289 -22.7179 -0.77191 1.2942 -0.0959345 
27 1 Li 3.17057 2.72779 4.26257 8.3129 -10.1253 25.38 -0.52709 -0.622026 0.298662 
28 1 Li 9.95661 1.26845 9.5178 -25.139 -23.748 3.21136 2.41933 -0.267048 0.168501 
29 1 Li 4.95636 9.39013 7.66776 0.5271 -11.0689 -11.5554 -2.33003 -1.38743 1.34548 
30 1 Li 5.47941 8.54468 4.20734 -26.3283 12.1645 18.3709 1.08055 0.112539 -0.492779 
31 1 Li 5.74979 4.69293 7.23463 -0.474023 7.74109 -27.1643 0.81085 -0.546806 -0.745751 
32 1 Li 5.51366 4.19658 10.0047 15.9433 0.339822 7.7448 0.856076 -2.43681 2.18571 
33 1 Li 0.198766 1.60278 4.38257 23.228 -13.9016 7.87534 -0.508436 -0.742066 0.187474 
34 1 Li 8.28394 2.91717 8.90353 29.8302 6.73238 4.37057 -1.09596 -1.6344 -0.519386 
35 1 Li 4.03049 10.0145 3.0985 12.6763 32.5168 -10.4444 -1.34479 1.0807 -0.254095 
36 1 Li 2.67121 9.33746 0.539753 17.0012 -11.3198 4.3743 -0.669053 -0.0181553 0.236982 
37 1 Li 2.82167 4.31908 9.3832 -39.0955 2.30291 -7.30887 0.473443 -0.656693 1.24659 
38 1 Li 8.29616 3.36532 5.29717 -10.7474 9.36147 1.45 0.89674 -0.297129 -0.342153 
39 1 Li 8.95528 9.45569 5.04095 21.308 2.0295 -1.90842 1.20178 -0.205037 -1.57773 
40 1 Li 2.82831 3.7176 1.86326 -13.2536 -1.91928 -3.24912 1.90578 -1.76301 -0.632184 
41 1 Li 9.13404 0.43288 7.10104 -18.802 -13.7532 19.4033 0.57053 -0.394647 -0.364627 
42 1 Li 10.1275 7.1422 7.7425 -32.4581 -11.3518 3.45818 0.655324 1.00964 2.6781 
43 1 Li 6.14228 1.37486 5.38098 17.5745 -7.19371 14.8772 -0.194214 1.61782 1.08838 
44 1 Li 0.897893 5.32039 0.827484 -16.8159 13.9157 -11.2078 -0.466111 1.08172 0.955883 
45 1 Li 5.38168 4.11788 4.15965 8.09842 26.9267 -7.53382 0.206212 -0.148262 -1.19505 
46 1 Li 3.27971 6.01128 7.05365 19.259 11.0723 20.1466 -0.0259258 0.454928 -0.287256 
47 1 Li 6.15871 9.63642 5.89326 19.5006 -42.836 -8.14308 0.616829 0.654413 -0.423273 
48 1 Li 1.40842 1.21144 2.23627 -9.83394 -14.2463 2.65765 -0.542247 -2.37631 -2.06962 
49 1 Li 7.53708 0.858798 3.50816 -9.54584 2.31131 28.5177 0.427831 0.388887 -0.798821 
50 1 Li 10.289 9.82791 0.19584 -16.9947 20.2727 -15.853 0.453805 0.348808 0.285847 
51 2 F 5.97048 8.61949 9.07146 1.94421 12.9809 2.98591 1.64318 -0.374418 -1.24851 
52 2 F 6.39579 2.42387 8.44704 0.927778 -3.25223 10.385 -0.405115 0.0726822 -0.264194 
53 2 F 0.194272 0.00246064 2.9659 7.9854 6.10367 -11.1456 -0.122288 0.379369 0.102204 
54 2 F 0.0909246 9.94025 5.40229 -10.2897 -20.638 1.21479 -0.235408 -0.241929 0.202604 
55 2 F 8.77185 8.86641 1.04295 -8.80194 8.34514 9.429 0.11577 2.84318 1.29404 
56 2 F 4.5769 4.40008 1.24965 5.18609 8.94111 -8.91896 0.818639 3.2025 -2.00921 
57 2 F 10.2312 3.64555 5.03199 23.7575 -13.7452 3.30971 -0.0413146 0.878128 0.0936081 
58 2 F 9.40163 9.49503 8.99118 -17.5904 -16.3421 5.29387 0.137242 1.89696 -0.343173 
59 2 F 8.74833 1.33467 1.6665 -10.0571 0.299323 3.79035 0.688708 -1.00631 1.59668 
60 2 F 8.44896 1.23047 10.0206 -4.909 -7.04375 -0.722598 -0.65005 0.996487 -2.64953 
61 2 F 8.66392 7.30539 8.61491 -3.98004 -5.09537 5.59273 -1.06545 0.277983 -0.539232 
62 2 F 5.29772 0.335037 7.08276 -1.6161 -2.96071 -4.57099 0.897537 0.417085 -0.624016 
63 2 F 7.67823 9.14265 3.44476 -13.7702 31.1494 12.7956 0.543949 0.740577 0.195997 
64 2 F 2.70259 0.370764 1.50624 -0.240214 -10.4065 3.44949 2.45403 -0.853094 0.890499 
65 2 F 5.85299 0.196975 0.656235 13.3106 14.45 -18.7621 0.729169 -0.375479 0.27655 
66 2 F 6.47124 2.16694 2.54325 15.9211 -3.01172 6.25617 1.26307 -0.269844 -0.0371289 
67 2 F 0.986255 3.18186 10.3739 -13.134 2.46113 -7.14898 0.262784 1.03082 -0.420931 
68 2 F 0.0649545 5.73779 8.73615 2.0072 -9.53436 1.76963 0.173383 -0.663215 -1.15942 
69 2 F 8.10536 9.70746 6.39471 -7.91973 -7.92423 -26.242 -1.76014 -0.113658 1.46503 
70 2 F 10.1091 2.72636 8.12291 -20.1506 10.8197 10.2751 -0.226017 -0.297065 -0.3122 
71 2 F 4.61539 8.16544 2.87116 -6.12143 17.898 8.1166 -0.0750474 0.305513 -0.290916 
72 2 F 7.55915 5.02454 7.44642 24.6899 12.3018 5.62092 -0.0430478 0.494613 -0.816982 
73 2 F 1.06982 0.0590173 10.5527 -6.89527 1.47258 -19.4951 -0.685813 0.531058 -1.2718 
74 2 F 1.97534 7.20486 4.71628 2.68538 -7.7381 11.403 -0.162326 1.47206 0.148147 
75 2 F 3.94667 9.8881 9.3975 -6.60055 -7.56562 2.86137 -0.0967895 0.818536 0.312421 
76 2 F 4.20217 2.99948 2.90432 6.9622 10.6763 2.16492 0.178547 -0.411931 2.22801 
77 2 F 1.87763 2.35633 3.17629 2.15396 -16.1868 4.58824 -1.50667 2.52518 0.0978909 
78 2 F 1.87039 8.37623 2.30826 11.5395 -7.52807 18.441 -1.64051 2.04652 -1.31652 
79 2 F 3.61838 8.16389 7.09438 18.9494 9.50049 -0.627232 0.85754 -0.97157 0.206009 
80 2 F 4.32247 2.48528 10.5129 -2.12139 -2.87066 -7.22462 0.237706 0.15561 -1.71421 
81 2 F 8.85707 1.51883 5.06558 18.7364 2.24666 1.96749 -0.859425 -0.436217 0.00395822 
82 2 F 2.07552 4.91246 2.57112 4.96946 4.88363 -4.17563 -2.19828 1.66111 0.314338 
83 2 F 2.07216 4.20133 7.89908 12.0259 20.1774 5.63112 0.166826 0.491985 -1.35507 
84 2 F 2.6905 0.0277346 4.61369 -1.53583 14.0719 2.99178 1.89491 -1.59473 -1.93087 
85 2 F 7.14376 7.23898 1.30214 -6.42186 0.437406 9.45314 -2.02401 -0.408245 -0.186534 
86 2 F 9.69195 5.11623 1.29758 6.64342 -10.7061 -6.49309 0.417929 -1.1299 0.403171 
87 2 F 0.32057 7.42802 0.141777 3.71278 -15.7158 -8.50165 0.199486 0.312031 -0.112857 
88 2 F 3.10539 1.67271 8.34769 2.4114 4.25605 12.7911 -1.46778 1.18996 -1.1982 
89 2 F 1.4446 9.848 7.90044 -8.08796 -0.0783833 -7.09857 0.131993 0.262569 -0.766178 
90 2 F 7.33491 5.74044 3.4993 5.56328 -15.6778 6.56691 -2.15132 -1.1373 1.79019 
91 2 F 8.16797 4.23305 9.8134 -16.8516 2.53235 -14.2925 -0.289248 1.39569 0.550788 
92 2 F 6.0608 0.109769 4.3301 6.17291 -11.2629 4.71305 -1.05246 -1.38213 -0.12665 
93 2 F 9.5989 7.1193 3.9677 -12.1182 -26.5426 -4.22642 -0.0827502 0.695129 -0.489288 
94 2 F 3.31109 5.3073 5.54408 -3.30122 6.78848 2.71785 1.16447 -1.73949 -0.0841931 
95 2 F 1.63328 1.99047 5.40494 -5.08573 0.731553 -10.7818 0.253 0.257541 1.93505 
96 2 F 4.66173 4.69246 8.67603 12.8655 0.37117 -5.95101 -0.853149 1.2885 -0.941557 
97 2 F 5.883 7.85435 5.62703 8.80967 2.01968 -3.3367 1.37682 -0.10558 1.77412 
98 2 F 6.55461 3.32412 5.29006 -5.55953 -1.26109 -10.9934 -1.09944 -0.385085 0.709703 
99 2 F 3.95475 7.49038 0.575588 -1.46447 -3.55463 -1.45035 -2.08935 3.47907 1.49056 
100 2 F 10.058 6.85146 6.20686 -3.96974 -9.86689 16.4103 -0.947569 -0.730497 -0.0969624 
ITEM: TIMESTEP
300
ITEM: NUMBER OF ATOMS
100
ITEM: BOX BOUNDS pp pp pp
0.0000000000000000e+00 1.0630000000000001e+01
0.0000000000000000e+00 1.0625999999999999e+01
0.0000000000000000e+00 1.0625000000000000e+01
ITEM: ATOMS id type element x y z vx vy vz fx fy fz 
1 1 Li 9.67714 3.20829 7.15724 -24.665 -0.910387 12.1965 -0.0989366 -0.114939 -0.308265 
2 1 Li 8.48052 7.08243 1.51248 1.19206 -14.5966 8.04541 -0.907583 -0.0486285 1.28636 
3 1 Li 8.13475 6.16791 7.39878 31.0979 -9.45326 12.7392 -0.303458 0.184054 -1.33631 
4 1 Li 3.71003 3.98329 8.54425 -17.0531 -15.5794 -2.92473 0.113281 0.423152 -0.144735 
5 1 Li 1.73942 9.55016 4.38021 -20.9111 -4.06487 -6.38773 0.804903 1.54721 -1.42675 
6 1 Li 8.39299 5.6503 4.07955 19.4805 -26.094 22.7893 1.93092 0.903575 0.463514 
7 1 Li 10.2414 8.70821 3.05779 1.91511 -2.34725 -7.78337 -1.07311 -0.829863 -0.244673 
8 1 Li 7.14083 7.94122 3.65611 3.79211 4.78444 -6.89729 -0.718271 0.698409 -1.88046 
9 1 Li 3.30765 4.06728 4.25395 -10.0024 26.6527 -2.83194 0.626451 0.328532 0.380476 
10 1 Li 6.2874 4.5665 1.86815 -24.468 5.27912 11.3299 -0.139747 -0.680801 -0.535648 
11 1 Li 7.65658 10.3564 0.849816 2.92857 -28.4486 20.6301 -0.426392 0.189301 0.18477 
12 1 Li 3.67473 1.83219 9.82323 13.3892 -26.1044 18.2953 1.0497 -0.0619954 0.719157 
13 1 Li 9.61869 7.22912 10.1268 -5.87104 -19.837 -22.9767 -0.150196 0.777307 -0.429979 
14 1 Li 10.3311 2.68353 0.981127 4.71988 -7.9982 2.06502 -0.739389 -2.12296 1.38432 
15 1 Li 4.63443 9.41651 0.0320804 -18.753 -12.7652 -8.67357 0.558008 0.585466 0.152807 
16 1 Li 4.54988 1.79682 2.09604 -0.664768 -2.0582 7.37844 0.909596 -0.471517 -1.55713 
17 1 Li 2.96144 7.00385 4.43324 -17.0921 24.567 -11.5108 1.40214 -0.0669712 -1.25128 
18 1 Li 4.74076 6.4356 1.62818 8.32225 -8.9274 -21.0076 -0.186817 0.192682 -0.753311 
19 1 Li 9.07367 5.03133 9.32832 8.69986 0.268372 13.3884 -2.2948 -0.227623 2.34142 
20 1 Li 2.0762 10.6117 9.31893 10.9861 25.0379 -20.4629 1.02792 0.664994 0.634117 
21 1 Li 1.40588 1.55551 7.29865 -29.3479 -4.26828 -14.391 0.351476 -0.871445 -2.30273 
22 1 Li 6.12742 7.27069 0.0319136 -3.70851 -6.53203 -21.9125 0.346447 -0.142206 -0.215603 
23 1 Li 7.76231 9.05669 8.38858 6.95151 -22.0889 4.49495 -1.51458 0.790273 0.839879 
24 1 Li 1.0116 2.90934 9.34555 1.94084 2.23797 23.8118 -0.191655 -1.14639 -1.65234 
25 1 Li 0.191719 5.52947 6.61441 13.4727 0.256835 22.6146 -0.302456 -0.728413 -0.783029 
26 1 Li 1.56926 7.35846 5.77679 -3.55368 9.18296 4.00019 -1.88938 0.243365 0.832276 
27 1 Li 2.9555 1.49867 3.70589 12.2969 20.4725 30.9945 -0.512777 -0.648262 0.60637 
28 1 Li 8.62993 1.97617 9.50422 -10.3834 4.35194 3.16508 1.37654 -3.59529 1.20252 
29 1 Li 4.88362 8.33642 8.0769 -20.6811 -11.4185 6.36294 -1.9759 -0.182431 -1.28711 
30 1 Li 4.07021 9.50663 5.67026 -4.01483 -7.33104 -9.35706 0.0363948 -0.0570957 0.0787758 
31 1 Li 6.42686 5.03132 5.04274 -27.7729 -3.35212 0.223852 -0.0388973 -0.509699 1.05617 
32 1 Li 6.19598 5.52872 8.63778 -2.14025 26.7023 1.37012 -1.0064 -0.415055 3.73553 
33 1 Li 10.4847 2.21252 3.92574 -6.03147 6.47786 2.6193 0.223737 0.692802 -0.338385 
34 1 Li 6.76251 2.97841 7.63917 -3.53977 2.08863 5.66265 -0.509799 -0.0111504 0.866493 
35 1 Li 4.85218 9.5095 3.20126 3.07111 -4.40778 -5.18773 0.824428 1.2149 -0.936778 
36 1 Li 2.55068 7.48125 1.58346 1.86234 2.86499 -21.2442 0.0127438 1.99189 -1.06627 
37 1 Li 1.11726 5.81276 8.6997 -13.3742 10.9599 -15.2099 1.22356 0.19849 0.811865 
38 1 Li 8.40305 3.65956 2.4822 -8.92612 3.71684 -2.13312 0.419665 -1.54076 0.337078 
39 1 Li 9.02451 8.16353 4.93974 11.3842 -20.9871 -4.43507 0.433503 0.144159 0.337819 
40 1 Li 2.32464 3.62783 1.63735 -23.0637 10.4754 -5.42785 -0.384838 0.0804869 -0.73214 
41 1 Li 9.93335 9.86245 7.25835 12.3021 4.02141 10.7012 -0.452928 0.605884 0.335255 
42 1 Li 0.602229 8.42364 8.27497 7.80283 6.38452 3.55096 -0.0574364 -2.1882 0.728041 
43 1 Li 4.54642 1.24852 6.52622 -9.27301 -1.21375 -7.76882 0.432557 0.401403 0.734613 
44 1 Li 0.797512 5.48052 3.38739 -4.8737 3.77844 6.08105 -1.08497 -0.128504 -1.9105 
45 1 Li 5.84308 2.16434 4.21238 7.08606 23.2077 7.577 1.51869 0.15273 0.238081 
46 1 Li 3.96797 5.94679 6.51316 4.15637 3.76381 6.56131 0.631239 -0.22202 0.683012 
47 1 Li 6.81759 9.26427 5.76487 -3.0246 0.576756 -9.94381 1.48791 0.459989 -0.0245936 
48 1 Li 1.77051 0.245342 1.2436 -2.56473 -27.9159 0.446699 0.309506 0.0718401 0.816496 
49 1 Li 9.01928 0.430416 3.77805 24.6351 3.65054 -18.8609 -1.26241 0.704479 -0.465846 
50 1 Li 9.946 9.59693 10.4672 22.098 15.966 4.73203 -0.251144 1.27841 -0.426377 
51 2 F 5.76539 8.50196 9.35768 -6.09033 -7.61484 0.0589098 1.81319 0.37681 0.97265 
52 2 F 5.04561 2.62452 8.75422 -1.95611 1.75279 -7.90202 -0.340492 0.374061 -0.49636 